V -t * -v 1.0a5 -a 0
A -t * -n 1 -p 0 -o 0x7fffffff -c 30 -a 1
A -t * -h 1 -m 1073741823 -s 0
c -t * -i 0 -n blue
c -t * -i 1 -n red
n -t * -a 8 -s 8 -S UP -v circle -c black -i black
n -t * -a 4 -s 4 -S UP -v circle -c black -i black
n -t * -a 0 -s 0 -S UP -v circle -c black -i black
n -t * -a 9 -s 9 -S UP -v circle -c black -i black
n -t * -a 5 -s 5 -S UP -v circle -c black -i black
n -t * -a 1 -s 1 -S UP -v circle -c black -i black
n -t * -a 6 -s 6 -S UP -v circle -c black -i black
n -t * -a 2 -s 2 -S UP -v circle -c black -i black
n -t * -a 7 -s 7 -S UP -v circle -c black -i black
n -t * -a 3 -s 3 -S UP -v circle -c black -i black
l -t * -s 0 -d 4 -S UP -r 10000000 -D 0.002 -c black
l -t * -s 1 -d 4 -S UP -r 10000000 -D 0.002 -c black
l -t * -s 2 -d 4 -S UP -r 10000000 -D 0.002 -c black
l -t * -s 3 -d 4 -S UP -r 10000000 -D 0.002 -c black
l -t * -s 4 -d 5 -S UP -r 300000 -D 0.10000000000000001 -c black
l -t * -s 5 -d 6 -S UP -r 500000 -D 0.040000000000000001 -c black
l -t * -s 5 -d 9 -S UP -r 500000 -D 0.040000000000000001 -c black
l -t * -s 6 -d 7 -S UP -r 500000 -D 0.040000000000000001 -c black
l -t * -s 7 -d 8 -S UP -r 500000 -D 0.040000000000000001 -c black
l -t * -s 8 -d 9 -S UP -r 500000 -D 0.040000000000000001 -c black
+ -t 0.3 -s 1 -d 4 -p tcp -e 40 -c 0 -i 0 -a 0 -x {1.0 9.0 0 ------- null}
- -t 0.3 -s 1 -d 4 -p tcp -e 40 -c 0 -i 0 -a 0 -x {1.0 9.0 0 ------- null}
h -t 0.3 -s 1 -d 4 -p tcp -e 40 -c 0 -i 0 -a 0 -x {1.0 9.0 -1 ------- null}
r -t 0.302032 -s 1 -d 4 -p tcp -e 40 -c 0 -i 0 -a 0 -x {1.0 9.0 0 ------- null}
+ -t 0.302032 -s 4 -d 5 -p tcp -e 40 -c 0 -i 0 -a 0 -x {1.0 9.0 0 ------- null}
- -t 0.302032 -s 4 -d 5 -p tcp -e 40 -c 0 -i 0 -a 0 -x {1.0 9.0 0 ------- null}
h -t 0.302032 -s 4 -d 5 -p tcp -e 40 -c 0 -i 0 -a 0 -x {1.0 9.0 -1 ------- null}
r -t 0.403098666666667 -s 4 -d 5 -p tcp -e 40 -c 0 -i 0 -a 0 -x {1.0 9.0 0 ------- null}
+ -t 0.403098666666667 -s 5 -d 9 -p tcp -e 40 -c 0 -i 0 -a 0 -x {1.0 9.0 0 ------- null}
- -t 0.403098666666667 -s 5 -d 9 -p tcp -e 40 -c 0 -i 0 -a 0 -x {1.0 9.0 0 ------- null}
h -t 0.403098666666667 -s 5 -d 9 -p tcp -e 40 -c 0 -i 0 -a 0 -x {1.0 9.0 -1 ------- null}
r -t 0.443738666666667 -s 5 -d 9 -p tcp -e 40 -c 0 -i 0 -a 0 -x {1.0 9.0 0 ------- null}
+ -t 0.443738666666667 -s 9 -d 5 -p ack -e 40 -c 0 -i 1 -a 0 -x {9.0 1.0 0 ------- null}
- -t 0.443738666666667 -s 9 -d 5 -p ack -e 40 -c 0 -i 1 -a 0 -x {9.0 1.0 0 ------- null}
h -t 0.443738666666667 -s 9 -d 5 -p ack -e 40 -c 0 -i 1 -a 0 -x {9.0 1.0 -1 ------- null}
r -t 0.484378666666667 -s 9 -d 5 -p ack -e 40 -c 0 -i 1 -a 0 -x {9.0 1.0 0 ------- null}
+ -t 0.484378666666667 -s 5 -d 4 -p ack -e 40 -c 0 -i 1 -a 0 -x {9.0 1.0 0 ------- null}
- -t 0.484378666666667 -s 5 -d 4 -p ack -e 40 -c 0 -i 1 -a 0 -x {9.0 1.0 0 ------- null}
h -t 0.484378666666667 -s 5 -d 4 -p ack -e 40 -c 0 -i 1 -a 0 -x {9.0 1.0 -1 ------- null}
r -t 0.585445333333333 -s 5 -d 4 -p ack -e 40 -c 0 -i 1 -a 0 -x {9.0 1.0 0 ------- null}
+ -t 0.585445333333333 -s 4 -d 1 -p ack -e 40 -c 0 -i 1 -a 0 -x {9.0 1.0 0 ------- null}
- -t 0.585445333333333 -s 4 -d 1 -p ack -e 40 -c 0 -i 1 -a 0 -x {9.0 1.0 0 ------- null}
h -t 0.585445333333333 -s 4 -d 1 -p ack -e 40 -c 0 -i 1 -a 0 -x {9.0 1.0 -1 ------- null}
r -t 0.587477333333333 -s 4 -d 1 -p ack -e 40 -c 0 -i 1 -a 0 -x {9.0 1.0 0 ------- null}
+ -t 0.587477333333333 -s 1 -d 4 -p tcp -e 1040 -c 0 -i 2 -a 0 -x {1.0 9.0 1 ------- null}
- -t 0.587477333333333 -s 1 -d 4 -p tcp -e 1040 -c 0 -i 2 -a 0 -x {1.0 9.0 1 ------- null}
h -t 0.587477333333333 -s 1 -d 4 -p tcp -e 1040 -c 0 -i 2 -a 0 -x {1.0 9.0 -1 ------- null}
+ -t 0.587477333333333 -s 1 -d 4 -p tcp -e 1040 -c 0 -i 3 -a 0 -x {1.0 9.0 2 ------- null}
- -t 0.588309333333333 -s 1 -d 4 -p tcp -e 1040 -c 0 -i 3 -a 0 -x {1.0 9.0 2 ------- null}
h -t 0.588309333333333 -s 1 -d 4 -p tcp -e 1040 -c 0 -i 3 -a 0 -x {1.0 9.0 -1 ------- null}
r -t 0.590309333333333 -s 1 -d 4 -p tcp -e 1040 -c 0 -i 2 -a 0 -x {1.0 9.0 1 ------- null}
+ -t 0.590309333333333 -s 4 -d 5 -p tcp -e 1040 -c 0 -i 2 -a 0 -x {1.0 9.0 1 ------- null}
- -t 0.590309333333333 -s 4 -d 5 -p tcp -e 1040 -c 0 -i 2 -a 0 -x {1.0 9.0 1 ------- null}
h -t 0.590309333333333 -s 4 -d 5 -p tcp -e 1040 -c 0 -i 2 -a 0 -x {1.0 9.0 -1 ------- null}
r -t 0.591141333333333 -s 1 -d 4 -p tcp -e 1040 -c 0 -i 3 -a 0 -x {1.0 9.0 2 ------- null}
+ -t 0.591141333333333 -s 4 -d 5 -p tcp -e 1040 -c 0 -i 3 -a 0 -x {1.0 9.0 2 ------- null}
- -t 0.618042666666667 -s 4 -d 5 -p tcp -e 1040 -c 0 -i 3 -a 0 -x {1.0 9.0 2 ------- null}
h -t 0.618042666666667 -s 4 -d 5 -p tcp -e 1040 -c 0 -i 3 -a 0 -x {1.0 9.0 -1 ------- null}
r -t 0.718042666666667 -s 4 -d 5 -p tcp -e 1040 -c 0 -i 2 -a 0 -x {1.0 9.0 1 ------- null}
+ -t 0.718042666666667 -s 5 -d 9 -p tcp -e 1040 -c 0 -i 2 -a 0 -x {1.0 9.0 1 ------- null}
- -t 0.718042666666667 -s 5 -d 9 -p tcp -e 1040 -c 0 -i 2 -a 0 -x {1.0 9.0 1 ------- null}
h -t 0.718042666666667 -s 5 -d 9 -p tcp -e 1040 -c 0 -i 2 -a 0 -x {1.0 9.0 -1 ------- null}
r -t 0.745776 -s 4 -d 5 -p tcp -e 1040 -c 0 -i 3 -a 0 -x {1.0 9.0 2 ------- null}
+ -t 0.745776 -s 5 -d 9 -p tcp -e 1040 -c 0 -i 3 -a 0 -x {1.0 9.0 2 ------- null}
- -t 0.745776 -s 5 -d 9 -p tcp -e 1040 -c 0 -i 3 -a 0 -x {1.0 9.0 2 ------- null}
h -t 0.745776 -s 5 -d 9 -p tcp -e 1040 -c 0 -i 3 -a 0 -x {1.0 9.0 -1 ------- null}
r -t 0.774682666666667 -s 5 -d 9 -p tcp -e 1040 -c 0 -i 2 -a 0 -x {1.0 9.0 1 ------- null}
+ -t 0.774682666666667 -s 9 -d 5 -p ack -e 40 -c 0 -i 4 -a 0 -x {9.0 1.0 1 ------- null}
- -t 0.774682666666667 -s 9 -d 5 -p ack -e 40 -c 0 -i 4 -a 0 -x {9.0 1.0 1 ------- null}
h -t 0.774682666666667 -s 9 -d 5 -p ack -e 40 -c 0 -i 4 -a 0 -x {9.0 1.0 -1 ------- null}
r -t 0.802416 -s 5 -d 9 -p tcp -e 1040 -c 0 -i 3 -a 0 -x {1.0 9.0 2 ------- null}
+ -t 0.802416 -s 9 -d 5 -p ack -e 40 -c 0 -i 5 -a 0 -x {9.0 1.0 2 ------- null}
- -t 0.802416 -s 9 -d 5 -p ack -e 40 -c 0 -i 5 -a 0 -x {9.0 1.0 2 ------- null}
h -t 0.802416 -s 9 -d 5 -p ack -e 40 -c 0 -i 5 -a 0 -x {9.0 1.0 -1 ------- null}
r -t 0.815322666666667 -s 9 -d 5 -p ack -e 40 -c 0 -i 4 -a 0 -x {9.0 1.0 1 ------- null}
+ -t 0.815322666666667 -s 5 -d 4 -p ack -e 40 -c 0 -i 4 -a 0 -x {9.0 1.0 1 ------- null}
- -t 0.815322666666667 -s 5 -d 4 -p ack -e 40 -c 0 -i 4 -a 0 -x {9.0 1.0 1 ------- null}
h -t 0.815322666666667 -s 5 -d 4 -p ack -e 40 -c 0 -i 4 -a 0 -x {9.0 1.0 -1 ------- null}
r -t 0.843056 -s 9 -d 5 -p ack -e 40 -c 0 -i 5 -a 0 -x {9.0 1.0 2 ------- null}
+ -t 0.843056 -s 5 -d 4 -p ack -e 40 -c 0 -i 5 -a 0 -x {9.0 1.0 2 ------- null}
- -t 0.843056 -s 5 -d 4 -p ack -e 40 -c 0 -i 5 -a 0 -x {9.0 1.0 2 ------- null}
h -t 0.843056 -s 5 -d 4 -p ack -e 40 -c 0 -i 5 -a 0 -x {9.0 1.0 -1 ------- null}
r -t 0.916389333333333 -s 5 -d 4 -p ack -e 40 -c 0 -i 4 -a 0 -x {9.0 1.0 1 ------- null}
+ -t 0.916389333333333 -s 4 -d 1 -p ack -e 40 -c 0 -i 4 -a 0 -x {9.0 1.0 1 ------- null}
- -t 0.916389333333333 -s 4 -d 1 -p ack -e 40 -c 0 -i 4 -a 0 -x {9.0 1.0 1 ------- null}
h -t 0.916389333333333 -s 4 -d 1 -p ack -e 40 -c 0 -i 4 -a 0 -x {9.0 1.0 -1 ------- null}
r -t 0.918421333333333 -s 4 -d 1 -p ack -e 40 -c 0 -i 4 -a 0 -x {9.0 1.0 1 ------- null}
+ -t 0.918421333333333 -s 1 -d 4 -p tcp -e 1040 -c 0 -i 6 -a 0 -x {1.0 9.0 3 ------- null}
- -t 0.918421333333333 -s 1 -d 4 -p tcp -e 1040 -c 0 -i 6 -a 0 -x {1.0 9.0 3 ------- null}
h -t 0.918421333333333 -s 1 -d 4 -p tcp -e 1040 -c 0 -i 6 -a 0 -x {1.0 9.0 -1 ------- null}
+ -t 0.918421333333333 -s 1 -d 4 -p tcp -e 1040 -c 0 -i 7 -a 0 -x {1.0 9.0 4 ------- null}
- -t 0.919253333333333 -s 1 -d 4 -p tcp -e 1040 -c 0 -i 7 -a 0 -x {1.0 9.0 4 ------- null}
h -t 0.919253333333333 -s 1 -d 4 -p tcp -e 1040 -c 0 -i 7 -a 0 -x {1.0 9.0 -1 ------- null}
r -t 0.921253333333333 -s 1 -d 4 -p tcp -e 1040 -c 0 -i 6 -a 0 -x {1.0 9.0 3 ------- null}
+ -t 0.921253333333333 -s 4 -d 5 -p tcp -e 1040 -c 0 -i 6 -a 0 -x {1.0 9.0 3 ------- null}
- -t 0.921253333333333 -s 4 -d 5 -p tcp -e 1040 -c 0 -i 6 -a 0 -x {1.0 9.0 3 ------- null}
h -t 0.921253333333333 -s 4 -d 5 -p tcp -e 1040 -c 0 -i 6 -a 0 -x {1.0 9.0 -1 ------- null}
r -t 0.922085333333333 -s 1 -d 4 -p tcp -e 1040 -c 0 -i 7 -a 0 -x {1.0 9.0 4 ------- null}
+ -t 0.922085333333333 -s 4 -d 5 -p tcp -e 1040 -c 0 -i 7 -a 0 -x {1.0 9.0 4 ------- null}
r -t 0.944122666666667 -s 5 -d 4 -p ack -e 40 -c 0 -i 5 -a 0 -x {9.0 1.0 2 ------- null}
+ -t 0.944122666666667 -s 4 -d 1 -p ack -e 40 -c 0 -i 5 -a 0 -x {9.0 1.0 2 ------- null}
- -t 0.944122666666667 -s 4 -d 1 -p ack -e 40 -c 0 -i 5 -a 0 -x {9.0 1.0 2 ------- null}
h -t 0.944122666666667 -s 4 -d 1 -p ack -e 40 -c 0 -i 5 -a 0 -x {9.0 1.0 -1 ------- null}
r -t 0.946154666666667 -s 4 -d 1 -p ack -e 40 -c 0 -i 5 -a 0 -x {9.0 1.0 2 ------- null}
+ -t 0.946154666666667 -s 1 -d 4 -p tcp -e 1040 -c 0 -i 8 -a 0 -x {1.0 9.0 5 ------- null}
- -t 0.946154666666667 -s 1 -d 4 -p tcp -e 1040 -c 0 -i 8 -a 0 -x {1.0 9.0 5 ------- null}
h -t 0.946154666666667 -s 1 -d 4 -p tcp -e 1040 -c 0 -i 8 -a 0 -x {1.0 9.0 -1 ------- null}
+ -t 0.946154666666667 -s 1 -d 4 -p tcp -e 1040 -c 0 -i 9 -a 0 -x {1.0 9.0 6 ------- null}
- -t 0.946986666666667 -s 1 -d 4 -p tcp -e 1040 -c 0 -i 9 -a 0 -x {1.0 9.0 6 ------- null}
h -t 0.946986666666667 -s 1 -d 4 -p tcp -e 1040 -c 0 -i 9 -a 0 -x {1.0 9.0 -1 ------- null}
r -t 0.948986666666667 -s 1 -d 4 -p tcp -e 1040 -c 0 -i 8 -a 0 -x {1.0 9.0 5 ------- null}
+ -t 0.948986666666667 -s 4 -d 5 -p tcp -e 1040 -c 0 -i 8 -a 0 -x {1.0 9.0 5 ------- null}
- -t 0.948986666666667 -s 4 -d 5 -p tcp -e 1040 -c 0 -i 7 -a 0 -x {1.0 9.0 4 ------- null}
h -t 0.948986666666667 -s 4 -d 5 -p tcp -e 1040 -c 0 -i 7 -a 0 -x {1.0 9.0 -1 ------- null}
r -t 0.949818666666667 -s 1 -d 4 -p tcp -e 1040 -c 0 -i 9 -a 0 -x {1.0 9.0 6 ------- null}
+ -t 0.949818666666667 -s 4 -d 5 -p tcp -e 1040 -c 0 -i 9 -a 0 -x {1.0 9.0 6 ------- null}
- -t 0.97672 -s 4 -d 5 -p tcp -e 1040 -c 0 -i 8 -a 0 -x {1.0 9.0 5 ------- null}
h -t 0.97672 -s 4 -d 5 -p tcp -e 1040 -c 0 -i 8 -a 0 -x {1.0 9.0 -1 ------- null}
- -t 1.00445333333333 -s 4 -d 5 -p tcp -e 1040 -c 0 -i 9 -a 0 -x {1.0 9.0 6 ------- null}
h -t 1.00445333333333 -s 4 -d 5 -p tcp -e 1040 -c 0 -i 9 -a 0 -x {1.0 9.0 -1 ------- null}
r -t 1.04898666666667 -s 4 -d 5 -p tcp -e 1040 -c 0 -i 6 -a 0 -x {1.0 9.0 3 ------- null}
+ -t 1.04898666666667 -s 5 -d 9 -p tcp -e 1040 -c 0 -i 6 -a 0 -x {1.0 9.0 3 ------- null}
- -t 1.04898666666667 -s 5 -d 9 -p tcp -e 1040 -c 0 -i 6 -a 0 -x {1.0 9.0 3 ------- null}
h -t 1.04898666666667 -s 5 -d 9 -p tcp -e 1040 -c 0 -i 6 -a 0 -x {1.0 9.0 -1 ------- null}
r -t 1.07672 -s 4 -d 5 -p tcp -e 1040 -c 0 -i 7 -a 0 -x {1.0 9.0 4 ------- null}
+ -t 1.07672 -s 5 -d 9 -p tcp -e 1040 -c 0 -i 7 -a 0 -x {1.0 9.0 4 ------- null}
- -t 1.07672 -s 5 -d 9 -p tcp -e 1040 -c 0 -i 7 -a 0 -x {1.0 9.0 4 ------- null}
h -t 1.07672 -s 5 -d 9 -p tcp -e 1040 -c 0 -i 7 -a 0 -x {1.0 9.0 -1 ------- null}
r -t 1.10445333333333 -s 4 -d 5 -p tcp -e 1040 -c 0 -i 8 -a 0 -x {1.0 9.0 5 ------- null}
+ -t 1.10445333333333 -s 5 -d 9 -p tcp -e 1040 -c 0 -i 8 -a 0 -x {1.0 9.0 5 ------- null}
- -t 1.10445333333333 -s 5 -d 9 -p tcp -e 1040 -c 0 -i 8 -a 0 -x {1.0 9.0 5 ------- null}
h -t 1.10445333333333 -s 5 -d 9 -p tcp -e 1040 -c 0 -i 8 -a 0 -x {1.0 9.0 -1 ------- null}
r -t 1.10562666666667 -s 5 -d 9 -p tcp -e 1040 -c 0 -i 6 -a 0 -x {1.0 9.0 3 ------- null}
+ -t 1.10562666666667 -s 9 -d 5 -p ack -e 40 -c 0 -i 10 -a 0 -x {9.0 1.0 3 ------- null}
- -t 1.10562666666667 -s 9 -d 5 -p ack -e 40 -c 0 -i 10 -a 0 -x {9.0 1.0 3 ------- null}
h -t 1.10562666666667 -s 9 -d 5 -p ack -e 40 -c 0 -i 10 -a 0 -x {9.0 1.0 -1 ------- null}
r -t 1.13218666666667 -s 4 -d 5 -p tcp -e 1040 -c 0 -i 9 -a 0 -x {1.0 9.0 6 ------- null}
+ -t 1.13218666666667 -s 5 -d 9 -p tcp -e 1040 -c 0 -i 9 -a 0 -x {1.0 9.0 6 ------- null}
- -t 1.13218666666667 -s 5 -d 9 -p tcp -e 1040 -c 0 -i 9 -a 0 -x {1.0 9.0 6 ------- null}
h -t 1.13218666666667 -s 5 -d 9 -p tcp -e 1040 -c 0 -i 9 -a 0 -x {1.0 9.0 -1 ------- null}
r -t 1.13336 -s 5 -d 9 -p tcp -e 1040 -c 0 -i 7 -a 0 -x {1.0 9.0 4 ------- null}
+ -t 1.13336 -s 9 -d 5 -p ack -e 40 -c 0 -i 11 -a 0 -x {9.0 1.0 4 ------- null}
- -t 1.13336 -s 9 -d 5 -p ack -e 40 -c 0 -i 11 -a 0 -x {9.0 1.0 4 ------- null}
h -t 1.13336 -s 9 -d 5 -p ack -e 40 -c 0 -i 11 -a 0 -x {9.0 1.0 -1 ------- null}
r -t 1.14626666666667 -s 9 -d 5 -p ack -e 40 -c 0 -i 10 -a 0 -x {9.0 1.0 3 ------- null}
+ -t 1.14626666666667 -s 5 -d 4 -p ack -e 40 -c 0 -i 10 -a 0 -x {9.0 1.0 3 ------- null}
- -t 1.14626666666667 -s 5 -d 4 -p ack -e 40 -c 0 -i 10 -a 0 -x {9.0 1.0 3 ------- null}
h -t 1.14626666666667 -s 5 -d 4 -p ack -e 40 -c 0 -i 10 -a 0 -x {9.0 1.0 -1 ------- null}
r -t 1.16109333333333 -s 5 -d 9 -p tcp -e 1040 -c 0 -i 8 -a 0 -x {1.0 9.0 5 ------- null}
+ -t 1.16109333333333 -s 9 -d 5 -p ack -e 40 -c 0 -i 12 -a 0 -x {9.0 1.0 5 ------- null}
- -t 1.16109333333333 -s 9 -d 5 -p ack -e 40 -c 0 -i 12 -a 0 -x {9.0 1.0 5 ------- null}
h -t 1.16109333333333 -s 9 -d 5 -p ack -e 40 -c 0 -i 12 -a 0 -x {9.0 1.0 -1 ------- null}
r -t 1.174 -s 9 -d 5 -p ack -e 40 -c 0 -i 11 -a 0 -x {9.0 1.0 4 ------- null}
+ -t 1.174 -s 5 -d 4 -p ack -e 40 -c 0 -i 11 -a 0 -x {9.0 1.0 4 ------- null}
- -t 1.174 -s 5 -d 4 -p ack -e 40 -c 0 -i 11 -a 0 -x {9.0 1.0 4 ------- null}
h -t 1.174 -s 5 -d 4 -p ack -e 40 -c 0 -i 11 -a 0 -x {9.0 1.0 -1 ------- null}
r -t 1.18882666666667 -s 5 -d 9 -p tcp -e 1040 -c 0 -i 9 -a 0 -x {1.0 9.0 6 ------- null}
+ -t 1.18882666666667 -s 9 -d 5 -p ack -e 40 -c 0 -i 13 -a 0 -x {9.0 1.0 6 ------- null}
- -t 1.18882666666667 -s 9 -d 5 -p ack -e 40 -c 0 -i 13 -a 0 -x {9.0 1.0 6 ------- null}
h -t 1.18882666666667 -s 9 -d 5 -p ack -e 40 -c 0 -i 13 -a 0 -x {9.0 1.0 -1 ------- null}
r -t 1.20173333333333 -s 9 -d 5 -p ack -e 40 -c 0 -i 12 -a 0 -x {9.0 1.0 5 ------- null}
+ -t 1.20173333333333 -s 5 -d 4 -p ack -e 40 -c 0 -i 12 -a 0 -x {9.0 1.0 5 ------- null}
- -t 1.20173333333333 -s 5 -d 4 -p ack -e 40 -c 0 -i 12 -a 0 -x {9.0 1.0 5 ------- null}
h -t 1.20173333333333 -s 5 -d 4 -p ack -e 40 -c 0 -i 12 -a 0 -x {9.0 1.0 -1 ------- null}
r -t 1.22946666666667 -s 9 -d 5 -p ack -e 40 -c 0 -i 13 -a 0 -x {9.0 1.0 6 ------- null}
+ -t 1.22946666666667 -s 5 -d 4 -p ack -e 40 -c 0 -i 13 -a 0 -x {9.0 1.0 6 ------- null}
- -t 1.22946666666667 -s 5 -d 4 -p ack -e 40 -c 0 -i 13 -a 0 -x {9.0 1.0 6 ------- null}
h -t 1.22946666666667 -s 5 -d 4 -p ack -e 40 -c 0 -i 13 -a 0 -x {9.0 1.0 -1 ------- null}
r -t 1.24733333333333 -s 5 -d 4 -p ack -e 40 -c 0 -i 10 -a 0 -x {9.0 1.0 3 ------- null}
+ -t 1.24733333333333 -s 4 -d 1 -p ack -e 40 -c 0 -i 10 -a 0 -x {9.0 1.0 3 ------- null}
- -t 1.24733333333333 -s 4 -d 1 -p ack -e 40 -c 0 -i 10 -a 0 -x {9.0 1.0 3 ------- null}
h -t 1.24733333333333 -s 4 -d 1 -p ack -e 40 -c 0 -i 10 -a 0 -x {9.0 1.0 -1 ------- null}
r -t 1.24936533333333 -s 4 -d 1 -p ack -e 40 -c 0 -i 10 -a 0 -x {9.0 1.0 3 ------- null}
+ -t 1.24936533333333 -s 1 -d 4 -p tcp -e 1040 -c 0 -i 14 -a 0 -x {1.0 9.0 7 ------- null}
- -t 1.24936533333333 -s 1 -d 4 -p tcp -e 1040 -c 0 -i 14 -a 0 -x {1.0 9.0 7 ------- null}
h -t 1.24936533333333 -s 1 -d 4 -p tcp -e 1040 -c 0 -i 14 -a 0 -x {1.0 9.0 -1 ------- null}
+ -t 1.24936533333333 -s 1 -d 4 -p tcp -e 1040 -c 0 -i 15 -a 0 -x {1.0 9.0 8 ------- null}
- -t 1.25019733333333 -s 1 -d 4 -p tcp -e 1040 -c 0 -i 15 -a 0 -x {1.0 9.0 8 ------- null}
h -t 1.25019733333333 -s 1 -d 4 -p tcp -e 1040 -c 0 -i 15 -a 0 -x {1.0 9.0 -1 ------- null}
r -t 1.25219733333333 -s 1 -d 4 -p tcp -e 1040 -c 0 -i 14 -a 0 -x {1.0 9.0 7 ------- null}
+ -t 1.25219733333333 -s 4 -d 5 -p tcp -e 1040 -c 0 -i 14 -a 0 -x {1.0 9.0 7 ------- null}
- -t 1.25219733333333 -s 4 -d 5 -p tcp -e 1040 -c 0 -i 14 -a 0 -x {1.0 9.0 7 ------- null}
h -t 1.25219733333333 -s 4 -d 5 -p tcp -e 1040 -c 0 -i 14 -a 0 -x {1.0 9.0 -1 ------- null}
r -t 1.25302933333333 -s 1 -d 4 -p tcp -e 1040 -c 0 -i 15 -a 0 -x {1.0 9.0 8 ------- null}
+ -t 1.25302933333333 -s 4 -d 5 -p tcp -e 1040 -c 0 -i 15 -a 0 -x {1.0 9.0 8 ------- null}
r -t 1.27506666666667 -s 5 -d 4 -p ack -e 40 -c 0 -i 11 -a 0 -x {9.0 1.0 4 ------- null}
+ -t 1.27506666666667 -s 4 -d 1 -p ack -e 40 -c 0 -i 11 -a 0 -x {9.0 1.0 4 ------- null}
- -t 1.27506666666667 -s 4 -d 1 -p ack -e 40 -c 0 -i 11 -a 0 -x {9.0 1.0 4 ------- null}
h -t 1.27506666666667 -s 4 -d 1 -p ack -e 40 -c 0 -i 11 -a 0 -x {9.0 1.0 -1 ------- null}
r -t 1.27709866666667 -s 4 -d 1 -p ack -e 40 -c 0 -i 11 -a 0 -x {9.0 1.0 4 ------- null}
+ -t 1.27709866666667 -s 1 -d 4 -p tcp -e 1040 -c 0 -i 16 -a 0 -x {1.0 9.0 9 ------- null}
- -t 1.27709866666667 -s 1 -d 4 -p tcp -e 1040 -c 0 -i 16 -a 0 -x {1.0 9.0 9 ------- null}
h -t 1.27709866666667 -s 1 -d 4 -p tcp -e 1040 -c 0 -i 16 -a 0 -x {1.0 9.0 -1 ------- null}
+ -t 1.27709866666667 -s 1 -d 4 -p tcp -e 1040 -c 0 -i 17 -a 0 -x {1.0 9.0 10 ------- null}
- -t 1.27793066666667 -s 1 -d 4 -p tcp -e 1040 -c 0 -i 17 -a 0 -x {1.0 9.0 10 ------- null}
h -t 1.27793066666667 -s 1 -d 4 -p tcp -e 1040 -c 0 -i 17 -a 0 -x {1.0 9.0 -1 ------- null}
- -t 1.27993066666667 -s 4 -d 5 -p tcp -e 1040 -c 0 -i 15 -a 0 -x {1.0 9.0 8 ------- null}
h -t 1.27993066666667 -s 4 -d 5 -p tcp -e 1040 -c 0 -i 15 -a 0 -x {1.0 9.0 -1 ------- null}
r -t 1.27993066666667 -s 1 -d 4 -p tcp -e 1040 -c 0 -i 16 -a 0 -x {1.0 9.0 9 ------- null}
+ -t 1.27993066666667 -s 4 -d 5 -p tcp -e 1040 -c 0 -i 16 -a 0 -x {1.0 9.0 9 ------- null}
r -t 1.28076266666667 -s 1 -d 4 -p tcp -e 1040 -c 0 -i 17 -a 0 -x {1.0 9.0 10 ------- null}
+ -t 1.28076266666667 -s 4 -d 5 -p tcp -e 1040 -c 0 -i 17 -a 0 -x {1.0 9.0 10 ------- null}
r -t 1.3028 -s 5 -d 4 -p ack -e 40 -c 0 -i 12 -a 0 -x {9.0 1.0 5 ------- null}
+ -t 1.3028 -s 4 -d 1 -p ack -e 40 -c 0 -i 12 -a 0 -x {9.0 1.0 5 ------- null}
- -t 1.3028 -s 4 -d 1 -p ack -e 40 -c 0 -i 12 -a 0 -x {9.0 1.0 5 ------- null}
h -t 1.3028 -s 4 -d 1 -p ack -e 40 -c 0 -i 12 -a 0 -x {9.0 1.0 -1 ------- null}
r -t 1.304832 -s 4 -d 1 -p ack -e 40 -c 0 -i 12 -a 0 -x {9.0 1.0 5 ------- null}
+ -t 1.304832 -s 1 -d 4 -p tcp -e 1040 -c 0 -i 18 -a 0 -x {1.0 9.0 11 ------- null}
- -t 1.304832 -s 1 -d 4 -p tcp -e 1040 -c 0 -i 18 -a 0 -x {1.0 9.0 11 ------- null}
h -t 1.304832 -s 1 -d 4 -p tcp -e 1040 -c 0 -i 18 -a 0 -x {1.0 9.0 -1 ------- null}
+ -t 1.304832 -s 1 -d 4 -p tcp -e 1040 -c 0 -i 19 -a 0 -x {1.0 9.0 12 ------- null}
- -t 1.305664 -s 1 -d 4 -p tcp -e 1040 -c 0 -i 19 -a 0 -x {1.0 9.0 12 ------- null}
h -t 1.305664 -s 1 -d 4 -p tcp -e 1040 -c 0 -i 19 -a 0 -x {1.0 9.0 -1 ------- null}
- -t 1.307664 -s 4 -d 5 -p tcp -e 1040 -c 0 -i 16 -a 0 -x {1.0 9.0 9 ------- null}
h -t 1.307664 -s 4 -d 5 -p tcp -e 1040 -c 0 -i 16 -a 0 -x {1.0 9.0 -1 ------- null}
r -t 1.307664 -s 1 -d 4 -p tcp -e 1040 -c 0 -i 18 -a 0 -x {1.0 9.0 11 ------- null}
+ -t 1.307664 -s 4 -d 5 -p tcp -e 1040 -c 0 -i 18 -a 0 -x {1.0 9.0 11 ------- null}
r -t 1.308496 -s 1 -d 4 -p tcp -e 1040 -c 0 -i 19 -a 0 -x {1.0 9.0 12 ------- null}
+ -t 1.308496 -s 4 -d 5 -p tcp -e 1040 -c 0 -i 19 -a 0 -x {1.0 9.0 12 ------- null}
r -t 1.33053333333333 -s 5 -d 4 -p ack -e 40 -c 0 -i 13 -a 0 -x {9.0 1.0 6 ------- null}
+ -t 1.33053333333333 -s 4 -d 1 -p ack -e 40 -c 0 -i 13 -a 0 -x {9.0 1.0 6 ------- null}
- -t 1.33053333333333 -s 4 -d 1 -p ack -e 40 -c 0 -i 13 -a 0 -x {9.0 1.0 6 ------- null}
h -t 1.33053333333333 -s 4 -d 1 -p ack -e 40 -c 0 -i 13 -a 0 -x {9.0 1.0 -1 ------- null}
r -t 1.33256533333333 -s 4 -d 1 -p ack -e 40 -c 0 -i 13 -a 0 -x {9.0 1.0 6 ------- null}
+ -t 1.33256533333333 -s 1 -d 4 -p tcp -e 1040 -c 0 -i 20 -a 0 -x {1.0 9.0 13 ------- null}
- -t 1.33256533333333 -s 1 -d 4 -p tcp -e 1040 -c 0 -i 20 -a 0 -x {1.0 9.0 13 ------- null}
h -t 1.33256533333333 -s 1 -d 4 -p tcp -e 1040 -c 0 -i 20 -a 0 -x {1.0 9.0 -1 ------- null}
+ -t 1.33256533333333 -s 1 -d 4 -p tcp -e 1040 -c 0 -i 21 -a 0 -x {1.0 9.0 14 ------- null}
- -t 1.33339733333333 -s 1 -d 4 -p tcp -e 1040 -c 0 -i 21 -a 0 -x {1.0 9.0 14 ------- null}
h -t 1.33339733333333 -s 1 -d 4 -p tcp -e 1040 -c 0 -i 21 -a 0 -x {1.0 9.0 -1 ------- null}
- -t 1.33539733333333 -s 4 -d 5 -p tcp -e 1040 -c 0 -i 17 -a 0 -x {1.0 9.0 10 ------- null}
h -t 1.33539733333333 -s 4 -d 5 -p tcp -e 1040 -c 0 -i 17 -a 0 -x {1.0 9.0 -1 ------- null}
r -t 1.33539733333333 -s 1 -d 4 -p tcp -e 1040 -c 0 -i 20 -a 0 -x {1.0 9.0 13 ------- null}
+ -t 1.33539733333333 -s 4 -d 5 -p tcp -e 1040 -c 0 -i 20 -a 0 -x {1.0 9.0 13 ------- null}
r -t 1.33622933333333 -s 1 -d 4 -p tcp -e 1040 -c 0 -i 21 -a 0 -x {1.0 9.0 14 ------- null}
+ -t 1.33622933333333 -s 4 -d 5 -p tcp -e 1040 -c 0 -i 21 -a 0 -x {1.0 9.0 14 ------- null}
- -t 1.36313066666667 -s 4 -d 5 -p tcp -e 1040 -c 0 -i 18 -a 0 -x {1.0 9.0 11 ------- null}
h -t 1.36313066666667 -s 4 -d 5 -p tcp -e 1040 -c 0 -i 18 -a 0 -x {1.0 9.0 -1 ------- null}
r -t 1.37993066666667 -s 4 -d 5 -p tcp -e 1040 -c 0 -i 14 -a 0 -x {1.0 9.0 7 ------- null}
+ -t 1.37993066666667 -s 5 -d 9 -p tcp -e 1040 -c 0 -i 14 -a 0 -x {1.0 9.0 7 ------- null}
- -t 1.37993066666667 -s 5 -d 9 -p tcp -e 1040 -c 0 -i 14 -a 0 -x {1.0 9.0 7 ------- null}
h -t 1.37993066666667 -s 5 -d 9 -p tcp -e 1040 -c 0 -i 14 -a 0 -x {1.0 9.0 -1 ------- null}
- -t 1.390864 -s 4 -d 5 -p tcp -e 1040 -c 0 -i 19 -a 0 -x {1.0 9.0 12 ------- null}
h -t 1.390864 -s 4 -d 5 -p tcp -e 1040 -c 0 -i 19 -a 0 -x {1.0 9.0 -1 ------- null}
r -t 1.407664 -s 4 -d 5 -p tcp -e 1040 -c 0 -i 15 -a 0 -x {1.0 9.0 8 ------- null}
+ -t 1.407664 -s 5 -d 9 -p tcp -e 1040 -c 0 -i 15 -a 0 -x {1.0 9.0 8 ------- null}
- -t 1.407664 -s 5 -d 9 -p tcp -e 1040 -c 0 -i 15 -a 0 -x {1.0 9.0 8 ------- null}
h -t 1.407664 -s 5 -d 9 -p tcp -e 1040 -c 0 -i 15 -a 0 -x {1.0 9.0 -1 ------- null}
- -t 1.41859733333333 -s 4 -d 5 -p tcp -e 1040 -c 0 -i 20 -a 0 -x {1.0 9.0 13 ------- null}
h -t 1.41859733333333 -s 4 -d 5 -p tcp -e 1040 -c 0 -i 20 -a 0 -x {1.0 9.0 -1 ------- null}
r -t 1.43539733333333 -s 4 -d 5 -p tcp -e 1040 -c 0 -i 16 -a 0 -x {1.0 9.0 9 ------- null}
+ -t 1.43539733333333 -s 5 -d 9 -p tcp -e 1040 -c 0 -i 16 -a 0 -x {1.0 9.0 9 ------- null}
- -t 1.43539733333333 -s 5 -d 9 -p tcp -e 1040 -c 0 -i 16 -a 0 -x {1.0 9.0 9 ------- null}
h -t 1.43539733333333 -s 5 -d 9 -p tcp -e 1040 -c 0 -i 16 -a 0 -x {1.0 9.0 -1 ------- null}
r -t 1.43657066666667 -s 5 -d 9 -p tcp -e 1040 -c 0 -i 14 -a 0 -x {1.0 9.0 7 ------- null}
+ -t 1.43657066666667 -s 9 -d 5 -p ack -e 40 -c 0 -i 22 -a 0 -x {9.0 1.0 7 ------- null}
- -t 1.43657066666667 -s 9 -d 5 -p ack -e 40 -c 0 -i 22 -a 0 -x {9.0 1.0 7 ------- null}
h -t 1.43657066666667 -s 9 -d 5 -p ack -e 40 -c 0 -i 22 -a 0 -x {9.0 1.0 -1 ------- null}
- -t 1.44633066666667 -s 4 -d 5 -p tcp -e 1040 -c 0 -i 21 -a 0 -x {1.0 9.0 14 ------- null}
h -t 1.44633066666667 -s 4 -d 5 -p tcp -e 1040 -c 0 -i 21 -a 0 -x {1.0 9.0 -1 ------- null}
r -t 1.46313066666667 -s 4 -d 5 -p tcp -e 1040 -c 0 -i 17 -a 0 -x {1.0 9.0 10 ------- null}
+ -t 1.46313066666667 -s 5 -d 9 -p tcp -e 1040 -c 0 -i 17 -a 0 -x {1.0 9.0 10 ------- null}
- -t 1.46313066666667 -s 5 -d 9 -p tcp -e 1040 -c 0 -i 17 -a 0 -x {1.0 9.0 10 ------- null}
h -t 1.46313066666667 -s 5 -d 9 -p tcp -e 1040 -c 0 -i 17 -a 0 -x {1.0 9.0 -1 ------- null}
r -t 1.464304 -s 5 -d 9 -p tcp -e 1040 -c 0 -i 15 -a 0 -x {1.0 9.0 8 ------- null}
+ -t 1.464304 -s 9 -d 5 -p ack -e 40 -c 0 -i 23 -a 0 -x {9.0 1.0 8 ------- null}
- -t 1.464304 -s 9 -d 5 -p ack -e 40 -c 0 -i 23 -a 0 -x {9.0 1.0 8 ------- null}
h -t 1.464304 -s 9 -d 5 -p ack -e 40 -c 0 -i 23 -a 0 -x {9.0 1.0 -1 ------- null}
r -t 1.47721066666667 -s 9 -d 5 -p ack -e 40 -c 0 -i 22 -a 0 -x {9.0 1.0 7 ------- null}
+ -t 1.47721066666667 -s 5 -d 4 -p ack -e 40 -c 0 -i 22 -a 0 -x {9.0 1.0 7 ------- null}
- -t 1.47721066666667 -s 5 -d 4 -p ack -e 40 -c 0 -i 22 -a 0 -x {9.0 1.0 7 ------- null}
h -t 1.47721066666667 -s 5 -d 4 -p ack -e 40 -c 0 -i 22 -a 0 -x {9.0 1.0 -1 ------- null}
r -t 1.490864 -s 4 -d 5 -p tcp -e 1040 -c 0 -i 18 -a 0 -x {1.0 9.0 11 ------- null}
+ -t 1.490864 -s 5 -d 9 -p tcp -e 1040 -c 0 -i 18 -a 0 -x {1.0 9.0 11 ------- null}
- -t 1.490864 -s 5 -d 9 -p tcp -e 1040 -c 0 -i 18 -a 0 -x {1.0 9.0 11 ------- null}
h -t 1.490864 -s 5 -d 9 -p tcp -e 1040 -c 0 -i 18 -a 0 -x {1.0 9.0 -1 ------- null}
r -t 1.49203733333333 -s 5 -d 9 -p tcp -e 1040 -c 0 -i 16 -a 0 -x {1.0 9.0 9 ------- null}
+ -t 1.49203733333333 -s 9 -d 5 -p ack -e 40 -c 0 -i 24 -a 0 -x {9.0 1.0 9 ------- null}
- -t 1.49203733333333 -s 9 -d 5 -p ack -e 40 -c 0 -i 24 -a 0 -x {9.0 1.0 9 ------- null}
h -t 1.49203733333333 -s 9 -d 5 -p ack -e 40 -c 0 -i 24 -a 0 -x {9.0 1.0 -1 ------- null}
r -t 1.504944 -s 9 -d 5 -p ack -e 40 -c 0 -i 23 -a 0 -x {9.0 1.0 8 ------- null}
+ -t 1.504944 -s 5 -d 4 -p ack -e 40 -c 0 -i 23 -a 0 -x {9.0 1.0 8 ------- null}
- -t 1.504944 -s 5 -d 4 -p ack -e 40 -c 0 -i 23 -a 0 -x {9.0 1.0 8 ------- null}
h -t 1.504944 -s 5 -d 4 -p ack -e 40 -c 0 -i 23 -a 0 -x {9.0 1.0 -1 ------- null}
r -t 1.51859733333333 -s 4 -d 5 -p tcp -e 1040 -c 0 -i 19 -a 0 -x {1.0 9.0 12 ------- null}
+ -t 1.51859733333333 -s 5 -d 9 -p tcp -e 1040 -c 0 -i 19 -a 0 -x {1.0 9.0 12 ------- null}
- -t 1.51859733333333 -s 5 -d 9 -p tcp -e 1040 -c 0 -i 19 -a 0 -x {1.0 9.0 12 ------- null}
h -t 1.51859733333333 -s 5 -d 9 -p tcp -e 1040 -c 0 -i 19 -a 0 -x {1.0 9.0 -1 ------- null}
r -t 1.51977066666667 -s 5 -d 9 -p tcp -e 1040 -c 0 -i 17 -a 0 -x {1.0 9.0 10 ------- null}
+ -t 1.51977066666667 -s 9 -d 5 -p ack -e 40 -c 0 -i 25 -a 0 -x {9.0 1.0 10 ------- null}
- -t 1.51977066666667 -s 9 -d 5 -p ack -e 40 -c 0 -i 25 -a 0 -x {9.0 1.0 10 ------- null}
h -t 1.51977066666667 -s 9 -d 5 -p ack -e 40 -c 0 -i 25 -a 0 -x {9.0 1.0 -1 ------- null}
r -t 1.53267733333333 -s 9 -d 5 -p ack -e 40 -c 0 -i 24 -a 0 -x {9.0 1.0 9 ------- null}
+ -t 1.53267733333333 -s 5 -d 4 -p ack -e 40 -c 0 -i 24 -a 0 -x {9.0 1.0 9 ------- null}
- -t 1.53267733333333 -s 5 -d 4 -p ack -e 40 -c 0 -i 24 -a 0 -x {9.0 1.0 9 ------- null}
h -t 1.53267733333333 -s 5 -d 4 -p ack -e 40 -c 0 -i 24 -a 0 -x {9.0 1.0 -1 ------- null}
r -t 1.54633066666667 -s 4 -d 5 -p tcp -e 1040 -c 0 -i 20 -a 0 -x {1.0 9.0 13 ------- null}
+ -t 1.54633066666667 -s 5 -d 9 -p tcp -e 1040 -c 0 -i 20 -a 0 -x {1.0 9.0 13 ------- null}
- -t 1.54633066666667 -s 5 -d 9 -p tcp -e 1040 -c 0 -i 20 -a 0 -x {1.0 9.0 13 ------- null}
h -t 1.54633066666667 -s 5 -d 9 -p tcp -e 1040 -c 0 -i 20 -a 0 -x {1.0 9.0 -1 ------- null}
r -t 1.547504 -s 5 -d 9 -p tcp -e 1040 -c 0 -i 18 -a 0 -x {1.0 9.0 11 ------- null}
+ -t 1.547504 -s 9 -d 5 -p ack -e 40 -c 0 -i 26 -a 0 -x {9.0 1.0 11 ------- null}
- -t 1.547504 -s 9 -d 5 -p ack -e 40 -c 0 -i 26 -a 0 -x {9.0 1.0 11 ------- null}
h -t 1.547504 -s 9 -d 5 -p ack -e 40 -c 0 -i 26 -a 0 -x {9.0 1.0 -1 ------- null}
r -t 1.56041066666667 -s 9 -d 5 -p ack -e 40 -c 0 -i 25 -a 0 -x {9.0 1.0 10 ------- null}
+ -t 1.56041066666667 -s 5 -d 4 -p ack -e 40 -c 0 -i 25 -a 0 -x {9.0 1.0 10 ------- null}
- -t 1.56041066666667 -s 5 -d 4 -p ack -e 40 -c 0 -i 25 -a 0 -x {9.0 1.0 10 ------- null}
h -t 1.56041066666667 -s 5 -d 4 -p ack -e 40 -c 0 -i 25 -a 0 -x {9.0 1.0 -1 ------- null}
r -t 1.574064 -s 4 -d 5 -p tcp -e 1040 -c 0 -i 21 -a 0 -x {1.0 9.0 14 ------- null}
+ -t 1.574064 -s 5 -d 9 -p tcp -e 1040 -c 0 -i 21 -a 0 -x {1.0 9.0 14 ------- null}
- -t 1.574064 -s 5 -d 9 -p tcp -e 1040 -c 0 -i 21 -a 0 -x {1.0 9.0 14 ------- null}
h -t 1.574064 -s 5 -d 9 -p tcp -e 1040 -c 0 -i 21 -a 0 -x {1.0 9.0 -1 ------- null}
r -t 1.57523733333333 -s 5 -d 9 -p tcp -e 1040 -c 0 -i 19 -a 0 -x {1.0 9.0 12 ------- null}
+ -t 1.57523733333333 -s 9 -d 5 -p ack -e 40 -c 0 -i 27 -a 0 -x {9.0 1.0 12 ------- null}
- -t 1.57523733333333 -s 9 -d 5 -p ack -e 40 -c 0 -i 27 -a 0 -x {9.0 1.0 12 ------- null}
h -t 1.57523733333333 -s 9 -d 5 -p ack -e 40 -c 0 -i 27 -a 0 -x {9.0 1.0 -1 ------- null}
r -t 1.57827733333333 -s 5 -d 4 -p ack -e 40 -c 0 -i 22 -a 0 -x {9.0 1.0 7 ------- null}
+ -t 1.57827733333333 -s 4 -d 1 -p ack -e 40 -c 0 -i 22 -a 0 -x {9.0 1.0 7 ------- null}
- -t 1.57827733333333 -s 4 -d 1 -p ack -e 40 -c 0 -i 22 -a 0 -x {9.0 1.0 7 ------- null}
h -t 1.57827733333333 -s 4 -d 1 -p ack -e 40 -c 0 -i 22 -a 0 -x {9.0 1.0 -1 ------- null}
r -t 1.58030933333333 -s 4 -d 1 -p ack -e 40 -c 0 -i 22 -a 0 -x {9.0 1.0 7 ------- null}
+ -t 1.58030933333333 -s 1 -d 4 -p tcp -e 1040 -c 0 -i 28 -a 0 -x {1.0 9.0 15 ------- null}
- -t 1.58030933333333 -s 1 -d 4 -p tcp -e 1040 -c 0 -i 28 -a 0 -x {1.0 9.0 15 ------- null}
h -t 1.58030933333333 -s 1 -d 4 -p tcp -e 1040 -c 0 -i 28 -a 0 -x {1.0 9.0 -1 ------- null}
+ -t 1.58030933333333 -s 1 -d 4 -p tcp -e 1040 -c 0 -i 29 -a 0 -x {1.0 9.0 16 ------- null}
- -t 1.58114133333333 -s 1 -d 4 -p tcp -e 1040 -c 0 -i 29 -a 0 -x {1.0 9.0 16 ------- null}
h -t 1.58114133333333 -s 1 -d 4 -p tcp -e 1040 -c 0 -i 29 -a 0 -x {1.0 9.0 -1 ------- null}
r -t 1.58314133333333 -s 1 -d 4 -p tcp -e 1040 -c 0 -i 28 -a 0 -x {1.0 9.0 15 ------- null}
+ -t 1.58314133333333 -s 4 -d 5 -p tcp -e 1040 -c 0 -i 28 -a 0 -x {1.0 9.0 15 ------- null}
- -t 1.58314133333333 -s 4 -d 5 -p tcp -e 1040 -c 0 -i 28 -a 0 -x {1.0 9.0 15 ------- null}
h -t 1.58314133333333 -s 4 -d 5 -p tcp -e 1040 -c 0 -i 28 -a 0 -x {1.0 9.0 -1 ------- null}
r -t 1.58397333333333 -s 1 -d 4 -p tcp -e 1040 -c 0 -i 29 -a 0 -x {1.0 9.0 16 ------- null}
+ -t 1.58397333333333 -s 4 -d 5 -p tcp -e 1040 -c 0 -i 29 -a 0 -x {1.0 9.0 16 ------- null}
r -t 1.588144 -s 9 -d 5 -p ack -e 40 -c 0 -i 26 -a 0 -x {9.0 1.0 11 ------- null}
+ -t 1.588144 -s 5 -d 4 -p ack -e 40 -c 0 -i 26 -a 0 -x {9.0 1.0 11 ------- null}
- -t 1.588144 -s 5 -d 4 -p ack -e 40 -c 0 -i 26 -a 0 -x {9.0 1.0 11 ------- null}
h -t 1.588144 -s 5 -d 4 -p ack -e 40 -c 0 -i 26 -a 0 -x {9.0 1.0 -1 ------- null}
r -t 1.60297066666667 -s 5 -d 9 -p tcp -e 1040 -c 0 -i 20 -a 0 -x {1.0 9.0 13 ------- null}
+ -t 1.60297066666667 -s 9 -d 5 -p ack -e 40 -c 0 -i 30 -a 0 -x {9.0 1.0 13 ------- null}
- -t 1.60297066666667 -s 9 -d 5 -p ack -e 40 -c 0 -i 30 -a 0 -x {9.0 1.0 13 ------- null}
h -t 1.60297066666667 -s 9 -d 5 -p ack -e 40 -c 0 -i 30 -a 0 -x {9.0 1.0 -1 ------- null}
r -t 1.60601066666667 -s 5 -d 4 -p ack -e 40 -c 0 -i 23 -a 0 -x {9.0 1.0 8 ------- null}
+ -t 1.60601066666667 -s 4 -d 1 -p ack -e 40 -c 0 -i 23 -a 0 -x {9.0 1.0 8 ------- null}
- -t 1.60601066666667 -s 4 -d 1 -p ack -e 40 -c 0 -i 23 -a 0 -x {9.0 1.0 8 ------- null}
h -t 1.60601066666667 -s 4 -d 1 -p ack -e 40 -c 0 -i 23 -a 0 -x {9.0 1.0 -1 ------- null}