+ 0.3 1 4 tcp 40 ------- 0 1.0 9.0 0 0
- 0.3 1 4 tcp 40 ------- 0 1.0 9.0 0 0
r 0.302032 1 4 tcp 40 ------- 0 1.0 9.0 0 0
+ 0.302032 4 5 tcp 40 ------- 0 1.0 9.0 0 0
- 0.302032 4 5 tcp 40 ------- 0 1.0 9.0 0 0
r 0.403099 4 5 tcp 40 ------- 0 1.0 9.0 0 0
+ 0.403099 5 9 tcp 40 ------- 0 1.0 9.0 0 0
- 0.403099 5 9 tcp 40 ------- 0 1.0 9.0 0 0
r 0.443739 5 9 tcp 40 ------- 0 1.0 9.0 0 0
+ 0.443739 9 5 ack 40 ------- 0 9.0 1.0 0 1
- 0.443739 9 5 ack 40 ------- 0 9.0 1.0 0 1
r 0.484379 9 5 ack 40 ------- 0 9.0 1.0 0 1
+ 0.484379 5 4 ack 40 ------- 0 9.0 1.0 0 1
- 0.484379 5 4 ack 40 ------- 0 9.0 1.0 0 1
r 0.585445 5 4 ack 40 ------- 0 9.0 1.0 0 1
+ 0.585445 4 1 ack 40 ------- 0 9.0 1.0 0 1
- 0.585445 4 1 ack 40 ------- 0 9.0 1.0 0 1
r 0.587477 4 1 ack 40 ------- 0 9.0 1.0 0 1
+ 0.587477 1 4 tcp 1040 ------- 0 1.0 9.0 1 2
- 0.587477 1 4 tcp 1040 ------- 0 1.0 9.0 1 2
+ 0.587477 1 4 tcp 1040 ------- 0 1.0 9.0 2 3
- 0.588309 1 4 tcp 1040 ------- 0 1.0 9.0 2 3
r 0.590309 1 4 tcp 1040 ------- 0 1.0 9.0 1 2
+ 0.590309 4 5 tcp 1040 ------- 0 1.0 9.0 1 2
- 0.590309 4 5 tcp 1040 ------- 0 1.0 9.0 1 2
r 0.591141 1 4 tcp 1040 ------- 0 1.0 9.0 2 3
+ 0.591141 4 5 tcp 1040 ------- 0 1.0 9.0 2 3
- 0.618043 4 5 tcp 1040 ------- 0 1.0 9.0 2 3
r 0.718043 4 5 tcp 1040 ------- 0 1.0 9.0 1 2
+ 0.718043 5 9 tcp 1040 ------- 0 1.0 9.0 1 2
- 0.718043 5 9 tcp 1040 ------- 0 1.0 9.0 1 2
r 0.745776 4 5 tcp 1040 ------- 0 1.0 9.0 2 3
+ 0.745776 5 9 tcp 1040 ------- 0 1.0 9.0 2 3
- 0.745776 5 9 tcp 1040 ------- 0 1.0 9.0 2 3
r 0.774683 5 9 tcp 1040 ------- 0 1.0 9.0 1 2
+ 0.774683 9 5 ack 40 ------- 0 9.0 1.0 1 4
- 0.774683 9 5 ack 40 ------- 0 9.0 1.0 1 4
r 0.802416 5 9 tcp 1040 ------- 0 1.0 9.0 2 3
+ 0.802416 9 5 ack 40 ------- 0 9.0 1.0 2 5
- 0.802416 9 5 ack 40 ------- 0 9.0 1.0 2 5
r 0.815323 9 5 ack 40 ------- 0 9.0 1.0 1 4
+ 0.815323 5 4 ack 40 ------- 0 9.0 1.0 1 4
- 0.815323 5 4 ack 40 ------- 0 9.0 1.0 1 4
r 0.843056 9 5 ack 40 ------- 0 9.0 1.0 2 5
+ 0.843056 5 4 ack 40 ------- 0 9.0 1.0 2 5
- 0.843056 5 4 ack 40 ------- 0 9.0 1.0 2 5
r 0.916389 5 4 ack 40 ------- 0 9.0 1.0 1 4
+ 0.916389 4 1 ack 40 ------- 0 9.0 1.0 1 4
- 0.916389 4 1 ack 40 ------- 0 9.0 1.0 1 4
r 0.918421 4 1 ack 40 ------- 0 9.0 1.0 1 4
+ 0.918421 1 4 tcp 1040 ------- 0 1.0 9.0 3 6
- 0.918421 1 4 tcp 1040 ------- 0 1.0 9.0 3 6
+ 0.918421 1 4 tcp 1040 ------- 0 1.0 9.0 4 7
- 0.919253 1 4 tcp 1040 ------- 0 1.0 9.0 4 7
r 0.921253 1 4 tcp 1040 ------- 0 1.0 9.0 3 6
+ 0.921253 4 5 tcp 1040 ------- 0 1.0 9.0 3 6
- 0.921253 4 5 tcp 1040 ------- 0 1.0 9.0 3 6
r 0.922085 1 4 tcp 1040 ------- 0 1.0 9.0 4 7
+ 0.922085 4 5 tcp 1040 ------- 0 1.0 9.0 4 7
r 0.944123 5 4 ack 40 ------- 0 9.0 1.0 2 5
+ 0.944123 4 1 ack 40 ------- 0 9.0 1.0 2 5
- 0.944123 4 1 ack 40 ------- 0 9.0 1.0 2 5
r 0.946155 4 1 ack 40 ------- 0 9.0 1.0 2 5
+ 0.946155 1 4 tcp 1040 ------- 0 1.0 9.0 5 8
- 0.946155 1 4 tcp 1040 ------- 0 1.0 9.0 5 8
+ 0.946155 1 4 tcp 1040 ------- 0 1.0 9.0 6 9
- 0.946987 1 4 tcp 1040 ------- 0 1.0 9.0 6 9
r 0.948987 1 4 tcp 1040 ------- 0 1.0 9.0 5 8
+ 0.948987 4 5 tcp 1040 ------- 0 1.0 9.0 5 8
- 0.948987 4 5 tcp 1040 ------- 0 1.0 9.0 4 7
r 0.949819 1 4 tcp 1040 ------- 0 1.0 9.0 6 9
+ 0.949819 4 5 tcp 1040 ------- 0 1.0 9.0 6 9
- 0.97672 4 5 tcp 1040 ------- 0 1.0 9.0 5 8
- 1.004453 4 5 tcp 1040 ------- 0 1.0 9.0 6 9
r 1.048987 4 5 tcp 1040 ------- 0 1.0 9.0 3 6
+ 1.048987 5 9 tcp 1040 ------- 0 1.0 9.0 3 6
- 1.048987 5 9 tcp 1040 ------- 0 1.0 9.0 3 6
r 1.07672 4 5 tcp 1040 ------- 0 1.0 9.0 4 7
+ 1.07672 5 9 tcp 1040 ------- 0 1.0 9.0 4 7
- 1.07672 5 9 tcp 1040 ------- 0 1.0 9.0 4 7
r 1.104453 4 5 tcp 1040 ------- 0 1.0 9.0 5 8
+ 1.104453 5 9 tcp 1040 ------- 0 1.0 9.0 5 8
- 1.104453 5 9 tcp 1040 ------- 0 1.0 9.0 5 8
r 1.105627 5 9 tcp 1040 ------- 0 1.0 9.0 3 6
+ 1.105627 9 5 ack 40 ------- 0 9.0 1.0 3 10
- 1.105627 9 5 ack 40 ------- 0 9.0 1.0 3 10
r 1.132187 4 5 tcp 1040 ------- 0 1.0 9.0 6 9
+ 1.132187 5 9 tcp 1040 ------- 0 1.0 9.0 6 9
- 1.132187 5 9 tcp 1040 ------- 0 1.0 9.0 6 9
r 1.13336 5 9 tcp 1040 ------- 0 1.0 9.0 4 7
+ 1.13336 9 5 ack 40 ------- 0 9.0 1.0 4 11
- 1.13336 9 5 ack 40 ------- 0 9.0 1.0 4 11
r 1.146267 9 5 ack 40 ------- 0 9.0 1.0 3 10
+ 1.146267 5 4 ack 40 ------- 0 9.0 1.0 3 10
- 1.146267 5 4 ack 40 ------- 0 9.0 1.0 3 10
r 1.161093 5 9 tcp 1040 ------- 0 1.0 9.0 5 8
+ 1.161093 9 5 ack 40 ------- 0 9.0 1.0 5 12
- 1.161093 9 5 ack 40 ------- 0 9.0 1.0 5 12
r 1.174 9 5 ack 40 ------- 0 9.0 1.0 4 11
+ 1.174 5 4 ack 40 ------- 0 9.0 1.0 4 11
- 1.174 5 4 ack 40 ------- 0 9.0 1.0 4 11
r 1.188827 5 9 tcp 1040 ------- 0 1.0 9.0 6 9
+ 1.188827 9 5 ack 40 ------- 0 9.0 1.0 6 13
- 1.188827 9 5 ack 40 ------- 0 9.0 1.0 6 13
r 1.201733 9 5 ack 40 ------- 0 9.0 1.0 5 12
+ 1.201733 5 4 ack 40 ------- 0 9.0 1.0 5 12
- 1.201733 5 4 ack 40 ------- 0 9.0 1.0 5 12
r 1.229467 9 5 ack 40 ------- 0 9.0 1.0 6 13
+ 1.229467 5 4 ack 40 ------- 0 9.0 1.0 6 13
- 1.229467 5 4 ack 40 ------- 0 9.0 1.0 6 13
r 1.247333 5 4 ack 40 ------- 0 9.0 1.0 3 10
+ 1.247333 4 1 ack 40 ------- 0 9.0 1.0 3 10
- 1.247333 4 1 ack 40 ------- 0 9.0 1.0 3 10
r 1.249365 4 1 ack 40 ------- 0 9.0 1.0 3 10
+ 1.249365 1 4 tcp 1040 ------- 0 1.0 9.0 7 14
- 1.249365 1 4 tcp 1040 ------- 0 1.0 9.0 7 14
+ 1.249365 1 4 tcp 1040 ------- 0 1.0 9.0 8 15
- 1.250197 1 4 tcp 1040 ------- 0 1.0 9.0 8 15
r 1.252197 1 4 tcp 1040 ------- 0 1.0 9.0 7 14
+ 1.252197 4 5 tcp 1040 ------- 0 1.0 9.0 7 14
- 1.252197 4 5 tcp 1040 ------- 0 1.0 9.0 7 14
r 1.253029 1 4 tcp 1040 ------- 0 1.0 9.0 8 15
+ 1.253029 4 5 tcp 1040 ------- 0 1.0 9.0 8 15
r 1.275067 5 4 ack 40 ------- 0 9.0 1.0 4 11
+ 1.275067 4 1 ack 40 ------- 0 9.0 1.0 4 11
- 1.275067 4 1 ack 40 ------- 0 9.0 1.0 4 11
r 1.277099 4 1 ack 40 ------- 0 9.0 1.0 4 11
+ 1.277099 1 4 tcp 1040 ------- 0 1.0 9.0 9 16
- 1.277099 1 4 tcp 1040 ------- 0 1.0 9.0 9 16
+ 1.277099 1 4 tcp 1040 ------- 0 1.0 9.0 10 17
- 1.277931 1 4 tcp 1040 ------- 0 1.0 9.0 10 17
- 1.279931 4 5 tcp 1040 ------- 0 1.0 9.0 8 15
r 1.279931 1 4 tcp 1040 ------- 0 1.0 9.0 9 16
+ 1.279931 4 5 tcp 1040 ------- 0 1.0 9.0 9 16
r 1.280763 1 4 tcp 1040 ------- 0 1.0 9.0 10 17
+ 1.280763 4 5 tcp 1040 ------- 0 1.0 9.0 10 17
r 1.3028 5 4 ack 40 ------- 0 9.0 1.0 5 12
+ 1.3028 4 1 ack 40 ------- 0 9.0 1.0 5 12
- 1.3028 4 1 ack 40 ------- 0 9.0 1.0 5 12
r 1.304832 4 1 ack 40 ------- 0 9.0 1.0 5 12
+ 1.304832 1 4 tcp 1040 ------- 0 1.0 9.0 11 18
- 1.304832 1 4 tcp 1040 ------- 0 1.0 9.0 11 18
+ 1.304832 1 4 tcp 1040 ------- 0 1.0 9.0 12 19
- 1.305664 1 4 tcp 1040 ------- 0 1.0 9.0 12 19
- 1.307664 4 5 tcp 1040 ------- 0 1.0 9.0 9 16
r 1.307664 1 4 tcp 1040 ------- 0 1.0 9.0 11 18
+ 1.307664 4 5 tcp 1040 ------- 0 1.0 9.0 11 18
r 1.308496 1 4 tcp 1040 ------- 0 1.0 9.0 12 19
+ 1.308496 4 5 tcp 1040 ------- 0 1.0 9.0 12 19
r 1.330533 5 4 ack 40 ------- 0 9.0 1.0 6 13
+ 1.330533 4 1 ack 40 ------- 0 9.0 1.0 6 13
- 1.330533 4 1 ack 40 ------- 0 9.0 1.0 6 13
r 1.332565 4 1 ack 40 ------- 0 9.0 1.0 6 13
+ 1.332565 1 4 tcp 1040 ------- 0 1.0 9.0 13 20
- 1.332565 1 4 tcp 1040 ------- 0 1.0 9.0 13 20
+ 1.332565 1 4 tcp 1040 ------- 0 1.0 9.0 14 21
- 1.333397 1 4 tcp 1040 ------- 0 1.0 9.0 14 21
- 1.335397 4 5 tcp 1040 ------- 0 1.0 9.0 10 17
r 1.335397 1 4 tcp 1040 ------- 0 1.0 9.0 13 20
+ 1.335397 4 5 tcp 1040 ------- 0 1.0 9.0 13 20
r 1.336229 1 4 tcp 1040 ------- 0 1.0 9.0 14 21
+ 1.336229 4 5 tcp 1040 ------- 0 1.0 9.0 14 21
- 1.363131 4 5 tcp 1040 ------- 0 1.0 9.0 11 18
r 1.379931 4 5 tcp 1040 ------- 0 1.0 9.0 7 14
+ 1.379931 5 9 tcp 1040 ------- 0 1.0 9.0 7 14
- 1.379931 5 9 tcp 1040 ------- 0 1.0 9.0 7 14
- 1.390864 4 5 tcp 1040 ------- 0 1.0 9.0 12 19
r 1.407664 4 5 tcp 1040 ------- 0 1.0 9.0 8 15
+ 1.407664 5 9 tcp 1040 ------- 0 1.0 9.0 8 15
- 1.407664 5 9 tcp 1040 ------- 0 1.0 9.0 8 15
- 1.418597 4 5 tcp 1040 ------- 0 1.0 9.0 13 20
r 1.435397 4 5 tcp 1040 ------- 0 1.0 9.0 9 16
+ 1.435397 5 9 tcp 1040 ------- 0 1.0 9.0 9 16
- 1.435397 5 9 tcp 1040 ------- 0 1.0 9.0 9 16
r 1.436571 5 9 tcp 1040 ------- 0 1.0 9.0 7 14
+ 1.436571 9 5 ack 40 ------- 0 9.0 1.0 7 22
- 1.436571 9 5 ack 40 ------- 0 9.0 1.0 7 22
- 1.446331 4 5 tcp 1040 ------- 0 1.0 9.0 14 21
r 1.463131 4 5 tcp 1040 ------- 0 1.0 9.0 10 17
+ 1.463131 5 9 tcp 1040 ------- 0 1.0 9.0 10 17
- 1.463131 5 9 tcp 1040 ------- 0 1.0 9.0 10 17
r 1.464304 5 9 tcp 1040 ------- 0 1.0 9.0 8 15
+ 1.464304 9 5 ack 40 ------- 0 9.0 1.0 8 23
- 1.464304 9 5 ack 40 ------- 0 9.0 1.0 8 23
r 1.477211 9 5 ack 40 ------- 0 9.0 1.0 7 22
+ 1.477211 5 4 ack 40 ------- 0 9.0 1.0 7 22
- 1.477211 5 4 ack 40 ------- 0 9.0 1.0 7 22
r 1.490864 4 5 tcp 1040 ------- 0 1.0 9.0 11 18
+ 1.490864 5 9 tcp 1040 ------- 0 1.0 9.0 11 18
- 1.490864 5 9 tcp 1040 ------- 0 1.0 9.0 11 18
r 1.492037 5 9 tcp 1040 ------- 0 1.0 9.0 9 16
+ 1.492037 9 5 ack 40 ------- 0 9.0 1.0 9 24
- 1.492037 9 5 ack 40 ------- 0 9.0 1.0 9 24
r 1.504944 9 5 ack 40 ------- 0 9.0 1.0 8 23
+ 1.504944 5 4 ack 40 ------- 0 9.0 1.0 8 23
- 1.504944 5 4 ack 40 ------- 0 9.0 1.0 8 23
r 1.518597 4 5 tcp 1040 ------- 0 1.0 9.0 12 19
+ 1.518597 5 9 tcp 1040 ------- 0 1.0 9.0 12 19
- 1.518597 5 9 tcp 1040 ------- 0 1.0 9.0 12 19
r 1.519771 5 9 tcp 1040 ------- 0 1.0 9.0 10 17
+ 1.519771 9 5 ack 40 ------- 0 9.0 1.0 10 25
- 1.519771 9 5 ack 40 ------- 0 9.0 1.0 10 25
r 1.532677 9 5 ack 40 ------- 0 9.0 1.0 9 24
+ 1.532677 5 4 ack 40 ------- 0 9.0 1.0 9 24
- 1.532677 5 4 ack 40 ------- 0 9.0 1.0 9 24
r 1.546331 4 5 tcp 1040 ------- 0 1.0 9.0 13 20
+ 1.546331 5 9 tcp 1040 ------- 0 1.0 9.0 13 20
- 1.546331 5 9 tcp 1040 ------- 0 1.0 9.0 13 20
r 1.547504 5 9 tcp 1040 ------- 0 1.0 9.0 11 18
+ 1.547504 9 5 ack 40 ------- 0 9.0 1.0 11 26
- 1.547504 9 5 ack 40 ------- 0 9.0 1.0 11 26
r 1.560411 9 5 ack 40 ------- 0 9.0 1.0 10 25
+ 1.560411 5 4 ack 40 ------- 0 9.0 1.0 10 25
- 1.560411 5 4 ack 40 ------- 0 9.0 1.0 10 25
r 1.574064 4 5 tcp 1040 ------- 0 1.0 9.0 14 21
+ 1.574064 5 9 tcp 1040 ------- 0 1.0 9.0 14 21
- 1.574064 5 9 tcp 1040 ------- 0 1.0 9.0 14 21
r 1.575237 5 9 tcp 1040 ------- 0 1.0 9.0 12 19
+ 1.575237 9 5 ack 40 ------- 0 9.0 1.0 12 27
- 1.575237 9 5 ack 40 ------- 0 9.0 1.0 12 27
r 1.578277 5 4 ack 40 ------- 0 9.0 1.0 7 22
+ 1.578277 4 1 ack 40 ------- 0 9.0 1.0 7 22
- 1.578277 4 1 ack 40 ------- 0 9.0 1.0 7 22
r 1.580309 4 1 ack 40 ------- 0 9.0 1.0 7 22
+ 1.580309 1 4 tcp 1040 ------- 0 1.0 9.0 15 28
- 1.580309 1 4 tcp 1040 ------- 0 1.0 9.0 15 28
+ 1.580309 1 4 tcp 1040 ------- 0 1.0 9.0 16 29
- 1.581141 1 4 tcp 1040 ------- 0 1.0 9.0 16 29
r 1.583141 1 4 tcp 1040 ------- 0 1.0 9.0 15 28
+ 1.583141 4 5 tcp 1040 ------- 0 1.0 9.0 15 28
- 1.583141 4 5 tcp 1040 ------- 0 1.0 9.0 15 28
r 1.583973 1 4 tcp 1040 ------- 0 1.0 9.0 16 29
+ 1.583973 4 5 tcp 1040 ------- 0 1.0 9.0 16 29
r 1.588144 9 5 ack 40 ------- 0 9.0 1.0 11 26
+ 1.588144 5 4 ack 40 ------- 0 9.0 1.0 11 26
- 1.588144 5 4 ack 40 ------- 0 9.0 1.0 11 26
r 1.602971 5 9 tcp 1040 ------- 0 1.0 9.0 13 20
+ 1.602971 9 5 ack 40 ------- 0 9.0 1.0 13 30
- 1.602971 9 5 ack 40 ------- 0 9.0 1.0 13 30
r 1.606011 5 4 ack 40 ------- 0 9.0 1.0 8 23
+ 1.606011 4 1 ack 40 ------- 0 9.0 1.0 8 23
- 1.606011 4 1 ack 40 ------- 0 9.0 1.0 8 23
r 1.608043 4 1 ack 40 ------- 0 9.0 1.0 8 23
+ 1.608043 1 4 tcp 1040 ------- 0 1.0 9.0 17 31
- 1.608043 1 4 tcp 1040 ------- 0 1.0 9.0 17 31
+ 1.608043 1 4 tcp 1040 ------- 0 1.0 9.0 18 32
- 1.608875 1 4 tcp 1040 ------- 0 1.0 9.0 18 32
- 1.610875 4 5 tcp 1040 ------- 0 1.0 9.0 16 29
r 1.610875 1 4 tcp 1040 ------- 0 1.0 9.0 17 31
+ 1.610875 4 5 tcp 1040 ------- 0 1.0 9.0 17 31
r 1.611707 1 4 tcp 1040 ------- 0 1.0 9.0 18 32
+ 1.611707 4 5 tcp 1040 ------- 0 1.0 9.0 18 32
r 1.615877 9 5 ack 40 ------- 0 9.0 1.0 12 27
+ 1.615877 5 4 ack 40 ------- 0 9.0 1.0 12 27
- 1.615877 5 4 ack 40 ------- 0 9.0 1.0 12 27
r 1.630704 5 9 tcp 1040 ------- 0 1.0 9.0 14 21
+ 1.630704 9 5 ack 40 ------- 0 9.0 1.0 14 33
- 1.630704 9 5 ack 40 ------- 0 9.0 1.0 14 33
r 1.633744 5 4 ack 40 ------- 0 9.0 1.0 9 24
+ 1.633744 4 1 ack 40 ------- 0 9.0 1.0 9 24
- 1.633744 4 1 ack 40 ------- 0 9.0 1.0 9 24
r 1.635776 4 1 ack 40 ------- 0 9.0 1.0 9 24
+ 1.635776 1 4 tcp 1040 ------- 0 1.0 9.0 19 34
- 1.635776 1 4 tcp 1040 ------- 0 1.0 9.0 19 34
+ 1.635776 1 4 tcp 1040 ------- 0 1.0 9.0 20 35
- 1.636608 1 4 tcp 1040 ------- 0 1.0 9.0 20 35
- 1.638608 4 5 tcp 1040 ------- 0 1.0 9.0 17 31
r 1.638608 1 4 tcp 1040 ------- 0 1.0 9.0 19 34
+ 1.638608 4 5 tcp 1040 ------- 0 1.0 9.0 19 34
r 1.63944 1 4 tcp 1040 ------- 0 1.0 9.0 20 35
+ 1.63944 4 5 tcp 1040 ------- 0 1.0 9.0 20 35
r 1.643611 9 5 ack 40 ------- 0 9.0 1.0 13 30
+ 1.643611 5 4 ack 40 ------- 0 9.0 1.0 13 30
- 1.643611 5 4 ack 40 ------- 0 9.0 1.0 13 30
r 1.661477 5 4 ack 40 ------- 0 9.0 1.0 10 25
+ 1.661477 4 1 ack 40 ------- 0 9.0 1.0 10 25
- 1.661477 4 1 ack 40 ------- 0 9.0 1.0 10 25
r 1.663509 4 1 ack 40 ------- 0 9.0 1.0 10 25
+ 1.663509 1 4 tcp 1040 ------- 0 1.0 9.0 21 36
- 1.663509 1 4 tcp 1040 ------- 0 1.0 9.0 21 36
+ 1.663509 1 4 tcp 1040 ------- 0 1.0 9.0 22 37
- 1.664341 1 4 tcp 1040 ------- 0 1.0 9.0 22 37
- 1.666341 4 5 tcp 1040 ------- 0 1.0 9.0 18 32
r 1.666341 1 4 tcp 1040 ------- 0 1.0 9.0 21 36
+ 1.666341 4 5 tcp 1040 ------- 0 1.0 9.0 21 36
r 1.667173 1 4 tcp 1040 ------- 0 1.0 9.0 22 37
+ 1.667173 4 5 tcp 1040 ------- 0 1.0 9.0 22 37
r 1.671344 9 5 ack 40 ------- 0 9.0 1.0 14 33
+ 1.671344 5 4 ack 40 ------- 0 9.0 1.0 14 33
- 1.671344 5 4 ack 40 ------- 0 9.0 1.0 14 33
r 1.689211 5 4 ack 40 ------- 0 9.0 1.0 11 26
+ 1.689211 4 1 ack 40 ------- 0 9.0 1.0 11 26
- 1.689211 4 1 ack 40 ------- 0 9.0 1.0 11 26
r 1.691243 4 1 ack 40 ------- 0 9.0 1.0 11 26
+ 1.691243 1 4 tcp 1040 ------- 0 1.0 9.0 23 38
- 1.691243 1 4 tcp 1040 ------- 0 1.0 9.0 23 38
+ 1.691243 1 4 tcp 1040 ------- 0 1.0 9.0 24 39
- 1.692075 1 4 tcp 1040 ------- 0 1.0 9.0 24 39
- 1.694075 4 5 tcp 1040 ------- 0 1.0 9.0 19 34
r 1.694075 1 4 tcp 1040 ------- 0 1.0 9.0 23 38
+ 1.694075 4 5 tcp 1040 ------- 0 1.0 9.0 23 38
r 1.694907 1 4 tcp 1040 ------- 0 1.0 9.0 24 39
+ 1.694907 4 5 tcp 1040 ------- 0 1.0 9.0 24 39
r 1.710875 4 5 tcp 1040 ------- 0 1.0 9.0 15 28
+ 1.710875 5 9 tcp 1040 ------- 0 1.0 9.0 15 28
- 1.710875 5 9 tcp 1040 ------- 0 1.0 9.0 15 28
r 1.716944 5 4 ack 40 ------- 0 9.0 1.0 12 27
+ 1.716944 4 1 ack 40 ------- 0 9.0 1.0 12 27
- 1.716944 4 1 ack 40 ------- 0 9.0 1.0 12 27
r 1.718976 4 1 ack 40 ------- 0 9.0 1.0 12 27
+ 1.718976 1 4 tcp 1040 ------- 0 1.0 9.0 25 40
- 1.718976 1 4 tcp 1040 ------- 0 1.0 9.0 25 40
+ 1.718976 1 4 tcp 1040 ------- 0 1.0 9.0 26 41
- 1.719808 1 4 tcp 1040 ------- 0 1.0 9.0 26 41
- 1.721808 4 5 tcp 1040 ------- 0 1.0 9.0 20 35
r 1.721808 1 4 tcp 1040 ------- 0 1.0 9.0 25 40
+ 1.721808 4 5 tcp 1040 ------- 0 1.0 9.0 25 40
r 1.72264 1 4 tcp 1040 ------- 0 1.0 9.0 26 41
+ 1.72264 4 5 tcp 1040 ------- 0 1.0 9.0 26 41
r 1.738608 4 5 tcp 1040 ------- 0 1.0 9.0 16 29
+ 1.738608 5 9 tcp 1040 ------- 0 1.0 9.0 16 29
- 1.738608 5 9 tcp 1040 ------- 0 1.0 9.0 16 29
r 1.744677 5 4 ack 40 ------- 0 9.0 1.0 13 30
+ 1.744677 4 1 ack 40 ------- 0 9.0 1.0 13 30
- 1.744677 4 1 ack 40 ------- 0 9.0 1.0 13 30
r 1.746709 4 1 ack 40 ------- 0 9.0 1.0 13 30
+ 1.746709 1 4 tcp 1040 ------- 0 1.0 9.0 27 42
- 1.746709 1 4 tcp 1040 ------- 0 1.0 9.0 27 42
+ 1.746709 1 4 tcp 1040 ------- 0 1.0 9.0 28 43
- 1.747541 1 4 tcp 1040 ------- 0 1.0 9.0 28 43
- 1.749541 4 5 tcp 1040 ------- 0 1.0 9.0 21 36
r 1.749541 1 4 tcp 1040 ------- 0 1.0 9.0 27 42
+ 1.749541 4 5 tcp 1040 ------- 0 1.0 9.0 27 42
r 1.750373 1 4 tcp 1040 ------- 0 1.0 9.0 28 43
+ 1.750373 4 5 tcp 1040 ------- 0 1.0 9.0 28 43
r 1.766341 4 5 tcp 1040 ------- 0 1.0 9.0 17 31
+ 1.766341 5 9 tcp 1040 ------- 0 1.0 9.0 17 31
- 1.766341 5 9 tcp 1040 ------- 0 1.0 9.0 17 31
r 1.767515 5 9 tcp 1040 ------- 0 1.0 9.0 15 28
+ 1.767515 9 5 ack 40 ------- 0 9.0 1.0 15 44
- 1.767515 9 5 ack 40 ------- 0 9.0 1.0 15 44
r 1.772411 5 4 ack 40 ------- 0 9.0 1.0 14 33
+ 1.772411 4 1 ack 40 ------- 0 9.0 1.0 14 33
- 1.772411 4 1 ack 40 ------- 0 9.0 1.0 14 33
r 1.774443 4 1 ack 40 ------- 0 9.0 1.0 14 33
+ 1.774443 1 4 tcp 1040 ------- 0 1.0 9.0 29 45
- 1.774443 1 4 tcp 1040 ------- 0 1.0 9.0 29 45
+ 1.774443 1 4 tcp 1040 ------- 0 1.0 9.0 30 46
- 1.775275 1 4 tcp 1040 ------- 0 1.0 9.0 30 46
- 1.777275 4 5 tcp 1040 ------- 0 1.0 9.0 22 37
r 1.777275 1 4 tcp 1040 ------- 0 1.0 9.0 29 45
+ 1.777275 4 5 tcp 1040 ------- 0 1.0 9.0 29 45
r 1.778107 1 4 tcp 1040 ------- 0 1.0 9.0 30 46
+ 1.778107 4 5 tcp 1040 ------- 0 1.0 9.0 30 46
r 1.794075 4 5 tcp 1040 ------- 0 1.0 9.0 18 32
+ 1.794075 5 9 tcp 1040 ------- 0 1.0 9.0 18 32
- 1.794075 5 9 tcp 1040 ------- 0 1.0 9.0 18 32
r 1.795248 5 9 tcp 1040 ------- 0 1.0 9.0 16 29
+ 1.795248 9 5 ack 40 ------- 0 9.0 1.0 16 47
- 1.795248 9 5 ack 40 ------- 0 9.0 1.0 16 47
- 1.805008 4 5 tcp 1040 ------- 0 1.0 9.0 23 38
r 1.808155 9 5 ack 40 ------- 0 9.0 1.0 15 44
+ 1.808155 5 4 ack 40 ------- 0 9.0 1.0 15 44
- 1.808155 5 4 ack 40 ------- 0 9.0 1.0 15 44
r 1.821808 4 5 tcp 1040 ------- 0 1.0 9.0 19 34
+ 1.821808 5 9 tcp 1040 ------- 0 1.0 9.0 19 34
- 1.821808 5 9 tcp 1040 ------- 0 1.0 9.0 19 34
r 1.822981 5 9 tcp 1040 ------- 0 1.0 9.0 17 31
+ 1.822981 9 5 ack 40 ------- 0 9.0 1.0 17 48
- 1.822981 9 5 ack 40 ------- 0 9.0 1.0 17 48
- 1.832741 4 5 tcp 1040 ------- 0 1.0 9.0 24 39
r 1.835888 9 5 ack 40 ------- 0 9.0 1.0 16 47
+ 1.835888 5 4 ack 40 ------- 0 9.0 1.0 16 47
- 1.835888 5 4 ack 40 ------- 0 9.0 1.0 16 47
r 1.849541 4 5 tcp 1040 ------- 0 1.0 9.0 20 35
+ 1.849541 5 9 tcp 1040 ------- 0 1.0 9.0 20 35
- 1.849541 5 9 tcp 1040 ------- 0 1.0 9.0 20 35
r 1.850715 5 9 tcp 1040 ------- 0 1.0 9.0 18 32
+ 1.850715 9 5 ack 40 ------- 0 9.0 1.0 18 49
- 1.850715 9 5 ack 40 ------- 0 9.0 1.0 18 49
- 1.860475 4 5 tcp 1040 ------- 0 1.0 9.0 25 40
r 1.863621 9 5 ack 40 ------- 0 9.0 1.0 17 48
+ 1.863621 5 4 ack 40 ------- 0 9.0 1.0 17 48
- 1.863621 5 4 ack 40 ------- 0 9.0 1.0 17 48
r 1.877275 4 5 tcp 1040 ------- 0 1.0 9.0 21 36
+ 1.877275 5 9 tcp 1040 ------- 0 1.0 9.0 21 36
- 1.877275 5 9 tcp 1040 ------- 0 1.0 9.0 21 36
r 1.878448 5 9 tcp 1040 ------- 0 1.0 9.0 19 34
+ 1.878448 9 5 ack 40 ------- 0 9.0 1.0 19 50
- 1.878448 9 5 ack 40 ------- 0 9.0 1.0 19 50
- 1.888208 4 5 tcp 1040 ------- 0 1.0 9.0 26 41
r 1.891355 9 5 ack 40 ------- 0 9.0 1.0 18 49
+ 1.891355 5 4 ack 40 ------- 0 9.0 1.0 18 49
- 1.891355 5 4 ack 40 ------- 0 9.0 1.0 18 49
r 1.905008 4 5 tcp 1040 ------- 0 1.0 9.0 22 37
+ 1.905008 5 9 tcp 1040 ------- 0 1.0 9.0 22 37
- 1.905008 5 9 tcp 1040 ------- 0 1.0 9.0 22 37
r 1.906181 5 9 tcp 1040 ------- 0 1.0 9.0 20 35
+ 1.906181 9 5 ack 40 ------- 0 9.0 1.0 20 51
- 1.906181 9 5 ack 40 ------- 0 9.0 1.0 20 51
r 1.909221 5 4 ack 40 ------- 0 9.0 1.0 15 44
+ 1.909221 4 1 ack 40 ------- 0 9.0 1.0 15 44
- 1.909221 4 1 ack 40 ------- 0 9.0 1.0 15 44
r 1.911253 4 1 ack 40 ------- 0 9.0 1.0 15 44
+ 1.911253 1 4 tcp 1040 ------- 0 1.0 9.0 31 52
- 1.911253 1 4 tcp 1040 ------- 0 1.0 9.0 31 52
+ 1.911253 1 4 tcp 1040 ------- 0 1.0 9.0 32 53
- 1.912085 1 4 tcp 1040 ------- 0 1.0 9.0 32 53
r 1.914085 1 4 tcp 1040 ------- 0 1.0 9.0 31 52
+ 1.914085 4 5 tcp 1040 ------- 0 1.0 9.0 31 52
r 1.914917 1 4 tcp 1040 ------- 0 1.0 9.0 32 53
+ 1.914917 4 5 tcp 1040 ------- 0 1.0 9.0 32 53
- 1.915941 4 5 tcp 1040 ------- 0 1.0 9.0 27 42
r 1.919088 9 5 ack 40 ------- 0 9.0 1.0 19 50
+ 1.919088 5 4 ack 40 ------- 0 9.0 1.0 19 50
- 1.919088 5 4 ack 40 ------- 0 9.0 1.0 19 50
r 1.932741 4 5 tcp 1040 ------- 0 1.0 9.0 23 38
+ 1.932741 5 9 tcp 1040 ------- 0 1.0 9.0 23 38
- 1.932741 5 9 tcp 1040 ------- 0 1.0 9.0 23 38
r 1.933915 5 9 tcp 1040 ------- 0 1.0 9.0 21 36
+ 1.933915 9 5 ack 40 ------- 0 9.0 1.0 21 54
- 1.933915 9 5 ack 40 ------- 0 9.0 1.0 21 54
r 1.936955 5 4 ack 40 ------- 0 9.0 1.0 16 47
+ 1.936955 4 1 ack 40 ------- 0 9.0 1.0 16 47
- 1.936955 4 1 ack 40 ------- 0 9.0 1.0 16 47
r 1.938987 4 1 ack 40 ------- 0 9.0 1.0 16 47
+ 1.938987 1 4 tcp 1040 ------- 0 1.0 9.0 33 55
- 1.938987 1 4 tcp 1040 ------- 0 1.0 9.0 33 55
+ 1.938987 1 4 tcp 1040 ------- 0 1.0 9.0 34 56
- 1.939819 1 4 tcp 1040 ------- 0 1.0 9.0 34 56
r 1.941819 1 4 tcp 1040 ------- 0 1.0 9.0 33 55
+ 1.941819 4 5 tcp 1040 ------- 0 1.0 9.0 33 55
r 1.942651 1 4 tcp 1040 ------- 0 1.0 9.0 34 56
+ 1.942651 4 5 tcp 1040 ------- 0 1.0 9.0 34 56
- 1.943675 4 5 tcp 1040 ------- 0 1.0 9.0 28 43
r 1.946821 9 5 ack 40 ------- 0 9.0 1.0 20 51
+ 1.946821 5 4 ack 40 ------- 0 9.0 1.0 20 51
- 1.946821 5 4 ack 40 ------- 0 9.0 1.0 20 51
r 1.960475 4 5 tcp 1040 ------- 0 1.0 9.0 24 39
+ 1.960475 5 9 tcp 1040 ------- 0 1.0 9.0 24 39
- 1.960475 5 9 tcp 1040 ------- 0 1.0 9.0 24 39
r 1.961648 5 9 tcp 1040 ------- 0 1.0 9.0 22 37
+ 1.961648 9 5 ack 40 ------- 0 9.0 1.0 22 57
- 1.961648 9 5 ack 40 ------- 0 9.0 1.0 22 57
r 1.964688 5 4 ack 40 ------- 0 9.0 1.0 17 48
+ 1.964688 4 1 ack 40 ------- 0 9.0 1.0 17 48
- 1.964688 4 1 ack 40 ------- 0 9.0 1.0 17 48
r 1.96672 4 1 ack 40 ------- 0 9.0 1.0 17 48
+ 1.96672 1 4 tcp 1040 ------- 0 1.0 9.0 35 58
- 1.96672 1 4 tcp 1040 ------- 0 1.0 9.0 35 58
+ 1.96672 1 4 tcp 1040 ------- 0 1.0 9.0 36 59
- 1.967552 1 4 tcp 1040 ------- 0 1.0 9.0 36 59
r 1.969552 1 4 tcp 1040 ------- 0 1.0 9.0 35 58
+ 1.969552 4 5 tcp 1040 ------- 0 1.0 9.0 35 58
r 1.970384 1 4 tcp 1040 ------- 0 1.0 9.0 36 59
+ 1.970384 4 5 tcp 1040 ------- 0 1.0 9.0 36 59
- 1.971408 4 5 tcp 1040 ------- 0 1.0 9.0 29 45
r 1.974555 9 5 ack 40 ------- 0 9.0 1.0 21 54
+ 1.974555 5 4 ack 40 ------- 0 9.0 1.0 21 54
- 1.974555 5 4 ack 40 ------- 0 9.0 1.0 21 54
r 1.988208 4 5 tcp 1040 ------- 0 1.0 9.0 25 40
+ 1.988208 5 9 tcp 1040 ------- 0 1.0 9.0 25 40
- 1.988208 5 9 tcp 1040 ------- 0 1.0 9.0 25 40
r 1.989381 5 9 tcp 1040 ------- 0 1.0 9.0 23 38
+ 1.989381 9 5 ack 40 ------- 0 9.0 1.0 23 60
- 1.989381 9 5 ack 40 ------- 0 9.0 1.0 23 60
r 1.992421 5 4 ack 40 ------- 0 9.0 1.0 18 49
+ 1.992421 4 1 ack 40 ------- 0 9.0 1.0 18 49
- 1.992421 4 1 ack 40 ------- 0 9.0 1.0 18 49
r 1.994453 4 1 ack 40 ------- 0 9.0 1.0 18 49
+ 1.994453 1 4 tcp 1040 ------- 0 1.0 9.0 37 61
- 1.994453 1 4 tcp 1040 ------- 0 1.0 9.0 37 61
+ 1.994453 1 4 tcp 1040 ------- 0 1.0 9.0 38 62
- 1.995285 1 4 tcp 1040 ------- 0 1.0 9.0 38 62
r 1.997285 1 4 tcp 1040 ------- 0 1.0 9.0 37 61
+ 1.997285 4 5 tcp 1040 ------- 0 1.0 9.0 37 61
r 1.998117 1 4 tcp 1040 ------- 0 1.0 9.0 38 62
+ 1.998117 4 5 tcp 1040 ------- 0 1.0 9.0 38 62
- 1.999141 4 5 tcp 1040 ------- 0 1.0 9.0 30 46
v 2 link-down 8 7
v 2 link-down 8 7
v 2 link-down 7 8
v 2 link-down 7 8
r 2.002288 9 5 ack 40 ------- 0 9.0 1.0 22 57
+ 2.002288 5 4 ack 40 ------- 0 9.0 1.0 22 57
- 2.002288 5 4 ack 40 ------- 0 9.0 1.0 22 57
r 2.015941 4 5 tcp 1040 ------- 0 1.0 9.0 26 41
+ 2.015941 5 9 tcp 1040 ------- 0 1.0 9.0 26 41
- 2.015941 5 9 tcp 1040 ------- 0 1.0 9.0 26 41
r 2.017115 5 9 tcp 1040 ------- 0 1.0 9.0 24 39
+ 2.017115 9 5 ack 40 ------- 0 9.0 1.0 24 63
- 2.017115 9 5 ack 40 ------- 0 9.0 1.0 24 63
r 2.020155 5 4 ack 40 ------- 0 9.0 1.0 19 50
+ 2.020155 4 1 ack 40 ------- 0 9.0 1.0 19 50
- 2.020155 4 1 ack 40 ------- 0 9.0 1.0 19 50
r 2.022187 4 1 ack 40 ------- 0 9.0 1.0 19 50
+ 2.022187 1 4 tcp 1040 ------- 0 1.0 9.0 39 64
- 2.022187 1 4 tcp 1040 ------- 0 1.0 9.0 39 64
r 2.025019 1 4 tcp 1040 ------- 0 1.0 9.0 39 64
+ 2.025019 4 5 tcp 1040 ------- 0 1.0 9.0 39 64
- 2.026875 4 5 tcp 1040 ------- 0 1.0 9.0 31 52
r 2.030021 9 5 ack 40 ------- 0 9.0 1.0 23 60
+ 2.030021 5 4 ack 40 ------- 0 9.0 1.0 23 60
- 2.030021 5 4 ack 40 ------- 0 9.0 1.0 23 60
r 2.043675 4 5 tcp 1040 ------- 0 1.0 9.0 27 42
+ 2.043675 5 9 tcp 1040 ------- 0 1.0 9.0 27 42
- 2.043675 5 9 tcp 1040 ------- 0 1.0 9.0 27 42
r 2.044848 5 9 tcp 1040 ------- 0 1.0 9.0 25 40
+ 2.044848 9 5 ack 40 ------- 0 9.0 1.0 25 65
- 2.044848 9 5 ack 40 ------- 0 9.0 1.0 25 65
r 2.047888 5 4 ack 40 ------- 0 9.0 1.0 20 51
+ 2.047888 4 1 ack 40 ------- 0 9.0 1.0 20 51
- 2.047888 4 1 ack 40 ------- 0 9.0 1.0 20 51
r 2.04992 4 1 ack 40 ------- 0 9.0 1.0 20 51
+ 2.04992 1 4 tcp 1040 ------- 0 1.0 9.0 40 66
- 2.04992 1 4 tcp 1040 ------- 0 1.0 9.0 40 66
r 2.052752 1 4 tcp 1040 ------- 0 1.0 9.0 40 66
+ 2.052752 4 5 tcp 1040 ------- 0 1.0 9.0 40 66
- 2.054608 4 5 tcp 1040 ------- 0 1.0 9.0 32 53
r 2.057755 9 5 ack 40 ------- 0 9.0 1.0 24 63
+ 2.057755 5 4 ack 40 ------- 0 9.0 1.0 24 63
- 2.057755 5 4 ack 40 ------- 0 9.0 1.0 24 63
r 2.071408 4 5 tcp 1040 ------- 0 1.0 9.0 28 43
+ 2.071408 5 9 tcp 1040 ------- 0 1.0 9.0 28 43
- 2.071408 5 9 tcp 1040 ------- 0 1.0 9.0 28 43
r 2.072581 5 9 tcp 1040 ------- 0 1.0 9.0 26 41
+ 2.072581 9 5 ack 40 ------- 0 9.0 1.0 26 67
- 2.072581 9 5 ack 40 ------- 0 9.0 1.0 26 67
r 2.075621 5 4 ack 40 ------- 0 9.0 1.0 21 54
+ 2.075621 4 1 ack 40 ------- 0 9.0 1.0 21 54
- 2.075621 4 1 ack 40 ------- 0 9.0 1.0 21 54
r 2.077653 4 1 ack 40 ------- 0 9.0 1.0 21 54
+ 2.077653 1 4 tcp 1040 ------- 0 1.0 9.0 41 68
- 2.077653 1 4 tcp 1040 ------- 0 1.0 9.0 41 68
r 2.080485 1 4 tcp 1040 ------- 0 1.0 9.0 41 68
+ 2.080485 4 5 tcp 1040 ------- 0 1.0 9.0 41 68
- 2.082341 4 5 tcp 1040 ------- 0 1.0 9.0 33 55
r 2.085488 9 5 ack 40 ------- 0 9.0 1.0 25 65
+ 2.085488 5 4 ack 40 ------- 0 9.0 1.0 25 65
- 2.085488 5 4 ack 40 ------- 0 9.0 1.0 25 65
r 2.099141 4 5 tcp 1040 ------- 0 1.0 9.0 29 45
+ 2.099141 5 9 tcp 1040 ------- 0 1.0 9.0 29 45
- 2.099141 5 9 tcp 1040 ------- 0 1.0 9.0 29 45
r 2.100315 5 9 tcp 1040 ------- 0 1.0 9.0 27 42
+ 2.100315 9 5 ack 40 ------- 0 9.0 1.0 27 69
- 2.100315 9 5 ack 40 ------- 0 9.0 1.0 27 69
r 2.103355 5 4 ack 40 ------- 0 9.0 1.0 22 57
+ 2.103355 4 1 ack 40 ------- 0 9.0 1.0 22 57
- 2.103355 4 1 ack 40 ------- 0 9.0 1.0 22 57
r 2.105387 4 1 ack 40 ------- 0 9.0 1.0 22 57
+ 2.105387 1 4 tcp 1040 ------- 0 1.0 9.0 42 70
- 2.105387 1 4 tcp 1040 ------- 0 1.0 9.0 42 70
r 2.108219 1 4 tcp 1040 ------- 0 1.0 9.0 42 70
+ 2.108219 4 5 tcp 1040 ------- 0 1.0 9.0 42 70
- 2.110075 4 5 tcp 1040 ------- 0 1.0 9.0 34 56
r 2.113221 9 5 ack 40 ------- 0 9.0 1.0 26 67
+ 2.113221 5 4 ack 40 ------- 0 9.0 1.0 26 67
- 2.113221 5 4 ack 40 ------- 0 9.0 1.0 26 67
r 2.126875 4 5 tcp 1040 ------- 0 1.0 9.0 30 46
+ 2.126875 5 9 tcp 1040 ------- 0 1.0 9.0 30 46
- 2.126875 5 9 tcp 1040 ------- 0 1.0 9.0 30 46
r 2.128048 5 9 tcp 1040 ------- 0 1.0 9.0 28 43
+ 2.128048 9 5 ack 40 ------- 0 9.0 1.0 28 71
- 2.128048 9 5 ack 40 ------- 0 9.0 1.0 28 71
r 2.131088 5 4 ack 40 ------- 0 9.0 1.0 23 60
+ 2.131088 4 1 ack 40 ------- 0 9.0 1.0 23 60
- 2.131088 4 1 ack 40 ------- 0 9.0 1.0 23 60
r 2.13312 4 1 ack 40 ------- 0 9.0 1.0 23 60
+ 2.13312 1 4 tcp 1040 ------- 0 1.0 9.0 43 72
- 2.13312 1 4 tcp 1040 ------- 0 1.0 9.0 43 72
r 2.135952 1 4 tcp 1040 ------- 0 1.0 9.0 43 72
+ 2.135952 4 5 tcp 1040 ------- 0 1.0 9.0 43 72
- 2.137808 4 5 tcp 1040 ------- 0 1.0 9.0 35 58
r 2.140955 9 5 ack 40 ------- 0 9.0 1.0 27 69
+ 2.140955 5 4 ack 40 ------- 0 9.0 1.0 27 69
- 2.140955 5 4 ack 40 ------- 0 9.0 1.0 27 69
r 2.154608 4 5 tcp 1040 ------- 0 1.0 9.0 31 52
+ 2.154608 5 9 tcp 1040 ------- 0 1.0 9.0 31 52
- 2.154608 5 9 tcp 1040 ------- 0 1.0 9.0 31 52
r 2.155781 5 9 tcp 1040 ------- 0 1.0 9.0 29 45
+ 2.155781 9 5 ack 40 ------- 0 9.0 1.0 29 73
- 2.155781 9 5 ack 40 ------- 0 9.0 1.0 29 73
r 2.158821 5 4 ack 40 ------- 0 9.0 1.0 24 63
+ 2.158821 4 1 ack 40 ------- 0 9.0 1.0 24 63
- 2.158821 4 1 ack 40 ------- 0 9.0 1.0 24 63
r 2.160853 4 1 ack 40 ------- 0 9.0 1.0 24 63
+ 2.160853 1 4 tcp 1040 ------- 0 1.0 9.0 44 74
- 2.160853 1 4 tcp 1040 ------- 0 1.0 9.0 44 74
r 2.163685 1 4 tcp 1040 ------- 0 1.0 9.0 44 74
+ 2.163685 4 5 tcp 1040 ------- 0 1.0 9.0 44 74
- 2.165541 4 5 tcp 1040 ------- 0 1.0 9.0 36 59
r 2.168688 9 5 ack 40 ------- 0 9.0 1.0 28 71
+ 2.168688 5 4 ack 40 ------- 0 9.0 1.0 28 71
- 2.168688 5 4 ack 40 ------- 0 9.0 1.0 28 71
r 2.182341 4 5 tcp 1040 ------- 0 1.0 9.0 32 53
+ 2.182341 5 9 tcp 1040 ------- 0 1.0 9.0 32 53
- 2.182341 5 9 tcp 1040 ------- 0 1.0 9.0 32 53
r 2.183515 5 9 tcp 1040 ------- 0 1.0 9.0 30 46
+ 2.183515 9 5 ack 40 ------- 0 9.0 1.0 30 75
- 2.183515 9 5 ack 40 ------- 0 9.0 1.0 30 75
r 2.186555 5 4 ack 40 ------- 0 9.0 1.0 25 65
+ 2.186555 4 1 ack 40 ------- 0 9.0 1.0 25 65
- 2.186555 4 1 ack 40 ------- 0 9.0 1.0 25 65
r 2.188587 4 1 ack 40 ------- 0 9.0 1.0 25 65
+ 2.188587 1 4 tcp 1040 ------- 0 1.0 9.0 45 76
- 2.188587 1 4 tcp 1040 ------- 0 1.0 9.0 45 76
r 2.191419 1 4 tcp 1040 ------- 0 1.0 9.0 45 76
+ 2.191419 4 5 tcp 1040 ------- 0 1.0 9.0 45 76
- 2.193275 4 5 tcp 1040 ------- 0 1.0 9.0 37 61
r 2.196421 9 5 ack 40 ------- 0 9.0 1.0 29 73
+ 2.196421 5 4 ack 40 ------- 0 9.0 1.0 29 73
- 2.196421 5 4 ack 40 ------- 0 9.0 1.0 29 73
r 2.210075 4 5 tcp 1040 ------- 0 1.0 9.0 33 55
+ 2.210075 5 9 tcp 1040 ------- 0 1.0 9.0 33 55
- 2.210075 5 9 tcp 1040 ------- 0 1.0 9.0 33 55
r 2.211248 5 9 tcp 1040 ------- 0 1.0 9.0 31 52
+ 2.211248 9 5 ack 40 ------- 0 9.0 1.0 31 77
- 2.211248 9 5 ack 40 ------- 0 9.0 1.0 31 77
r 2.214288 5 4 ack 40 ------- 0 9.0 1.0 26 67
+ 2.214288 4 1 ack 40 ------- 0 9.0 1.0 26 67
- 2.214288 4 1 ack 40 ------- 0 9.0 1.0 26 67
r 2.21632 4 1 ack 40 ------- 0 9.0 1.0 26 67
+ 2.21632 1 4 tcp 1040 ------- 0 1.0 9.0 46 78
- 2.21632 1 4 tcp 1040 ------- 0 1.0 9.0 46 78
r 2.219152 1 4 tcp 1040 ------- 0 1.0 9.0 46 78
+ 2.219152 4 5 tcp 1040 ------- 0 1.0 9.0 46 78
- 2.221008 4 5 tcp 1040 ------- 0 1.0 9.0 38 62
r 2.224155 9 5 ack 40 ------- 0 9.0 1.0 30 75
+ 2.224155 5 4 ack 40 ------- 0 9.0 1.0 30 75
- 2.224155 5 4 ack 40 ------- 0 9.0 1.0 30 75
r 2.237808 4 5 tcp 1040 ------- 0 1.0 9.0 34 56
+ 2.237808 5 9 tcp 1040 ------- 0 1.0 9.0 34 56
- 2.237808 5 9 tcp 1040 ------- 0 1.0 9.0 34 56
r 2.238981 5 9 tcp 1040 ------- 0 1.0 9.0 32 53
+ 2.238981 9 5 ack 40 ------- 0 9.0 1.0 32 79
- 2.238981 9 5 ack 40 ------- 0 9.0 1.0 32 79
r 2.242021 5 4 ack 40 ------- 0 9.0 1.0 27 69
+ 2.242021 4 1 ack 40 ------- 0 9.0 1.0 27 69
- 2.242021 4 1 ack 40 ------- 0 9.0 1.0 27 69
r 2.244053 4 1 ack 40 ------- 0 9.0 1.0 27 69
+ 2.244053 1 4 tcp 1040 ------- 0 1.0 9.0 47 80
- 2.244053 1 4 tcp 1040 ------- 0 1.0 9.0 47 80
r 2.246885 1 4 tcp 1040 ------- 0 1.0 9.0 47 80
+ 2.246885 4 5 tcp 1040 ------- 0 1.0 9.0 47 80
- 2.248741 4 5 tcp 1040 ------- 0 1.0 9.0 39 64